/*--------------------------------*- C++ -*----------------------------------*\
| =========                 |                                                 |
| \\      /  F ield         | OpenFOAM: The Open Source CFD Toolbox           |
|  \\    /   O peration     | Version:  v2006                                 |
|   \\  /    A nd           | Website:  www.openfoam.com                      |
|    \\/     M anipulation  |                                                 |
\*---------------------------------------------------------------------------*/
FoamFile
{
    version     2.0;
    format      ascii;
    class       surfaceScalarField;
    location    "0.05";
    object      phi;
}
// * * * * * * * * * * * * * * * * * * * * * * * * * * * * * * * * * * * * * //

dimensions      [1 0 -1 0 0 0 0];
oriented        oriented;


internalField   nonuniform List<scalar> 
76100
(
-5.96888e-07
-2.01526e-05
1.99306e-05
1.04769e-06
-1.87498e-05
1.83573e-05
1.88858e-07
1.11414e-06
2.64758e-07
2.19486e-05
6.49544e-07
2.45637e-05
-1.65428e-07
2.57796e-05
-3.6346e-08
2.69713e-05
-1.93908e-07
2.72623e-05
-1.55313e-07
2.74937e-05
-1.66256e-07
2.75436e-05
-1.84805e-07
2.75512e-05
-2.05088e-07
2.75529e-05
-2.23535e-07
2.75509e-05
-2.43105e-07
2.75518e-05
-2.63728e-07
2.75527e-05
-2.82319e-07
2.75504e-05
-3.02896e-07
2.75522e-05
-3.21359e-07
2.75498e-05
-3.41804e-07
2.75516e-05
-3.60137e-07
2.75492e-05
-3.79427e-07
2.75499e-05
-3.99108e-07
2.755e-05
-4.18175e-07
2.7549e-05
-4.37174e-07
2.75486e-05
-4.56072e-07
2.75482e-05
-4.7488e-07
2.75477e-05
-4.93625e-07
2.75472e-05
-5.1229e-07
2.75466e-05
-5.30855e-07
2.75461e-05
-5.49327e-07
2.75455e-05
-5.67677e-07
2.75448e-05
-5.85894e-07
2.75442e-05
-6.03972e-07
2.75435e-05
-6.21903e-07
2.75427e-05
-6.3968e-07
2.7542e-05
-6.57307e-07
2.75412e-05
-6.74782e-07
2.75404e-05
-6.92114e-07
2.75396e-05
-7.09303e-07
2.75387e-05
-7.26351e-07
2.75378e-05
-7.43261e-07
2.75369e-05
-7.60023e-07
2.7536e-05
-7.76629e-07
2.75351e-05
-7.93086e-07
2.75341e-05
-8.09373e-07
2.75331e-05
-8.25528e-07
2.75321e-05
-8.41598e-07
2.75311e-05
-8.57561e-07
2.753e-05
-8.73374e-07
2.75289e-05
-8.89032e-07
2.75277e-05
-9.04567e-07
2.75266e-05
-9.19946e-07
2.75254e-05
-9.35121e-07
2.75242e-05
-9.50014e-07
2.75229e-05
-9.64591e-07
2.75216e-05
-9.78877e-07
2.75204e-05
-9.92928e-07
2.75191e-05
-1.00676e-06
2.75178e-05
-1.02038e-06
2.75165e-05
-1.03377e-06
2.75151e-05
-1.04692e-06
2.75137e-05
-1.05983e-06
2.75123e-05
-1.07249e-06
2.75108e-05
-1.08488e-06
2.75094e-05
-1.09699e-06
2.75079e-05
-1.10883e-06
2.75064e-05
-1.12037e-06
2.75048e-05
-1.13161e-06
2.75033e-05
-1.14254e-06
2.75017e-05
-1.15316e-06
2.75001e-05
-1.16346e-06
2.74984e-05
-1.17341e-06
2.74968e-05
-1.18303e-06
2.74951e-05
-1.19231e-06
2.74934e-05
-1.20123e-06
2.74917e-05
-1.20979e-06
2.749e-05
-1.21799e-06
2.74882e-05
-1.22582e-06
2.74865e-05
-1.23327e-06
2.74847e-05
-1.24034e-06
2.74829e-05
-1.24699e-06
2.74811e-05
-1.25324e-06
2.74792e-05
-1.2591e-06
2.74774e-05
-1.26454e-06
2.74755e-05
-1.26958e-06
2.74736e-05
-1.27418e-06
2.74717e-05
-1.27836e-06
2.74698e-05
-1.28209e-06
2.74678e-05
-1.28538e-06
2.74659e-05
-1.28821e-06
2.74639e-05
-1.29059e-06
2.74619e-05
-1.2925e-06
2.746e-05
-1.29394e-06
2.7458e-05
-1.2949e-06
2.74559e-05
-1.29538e-06
2.74539e-05
-1.29537e-06
2.74519e-05
-1.29485e-06
2.74498e-05
-1.29384e-06
2.74478e-05
-1.29232e-06
2.74457e-05
-1.29028e-06
2.74436e-05
-1.28772e-06
2.74415e-05
-1.28464e-06
2.74394e-05
-1.28103e-06
2.74373e-05
-1.27687e-06
2.74352e-05
-1.27217e-06
2.74331e-05
-1.26693e-06
2.7431e-05
-1.26114e-06
2.74289e-05
-1.25479e-06
2.74267e-05
-1.2479e-06
2.74246e-05
-1.24044e-06
2.74225e-05
-1.23243e-06
2.74204e-05
-1.22384e-06
2.74182e-05
-1.21466e-06
2.74161e-05
-1.20488e-06
2.74139e-05
-1.19455e-06
2.74119e-05
-1.18364e-06
2.74098e-05
-1.17216e-06
2.74077e-05
-1.1601e-06
2.74056e-05
-1.14745e-06
2.74035e-05
-1.13421e-06
2.74014e-05
-1.12039e-06
2.73993e-05
-1.10599e-06
2.73973e-05
-1.091e-06
2.73953e-05
-1.07543e-06
2.73932e-05
-1.05928e-06
2.73912e-05
-1.04256e-06
2.73892e-05
-1.02527e-06
2.73873e-05
-1.00742e-06
2.73853e-05
-9.89003e-07
2.73834e-05
-9.70041e-07
2.73815e-05
-9.50538e-07
2.73796e-05
-9.30514e-07
2.73778e-05
-9.09977e-07
2.7376e-05
-8.8894e-07
2.73742e-05
-8.67436e-07
2.73725e-05
-8.45488e-07
2.73708e-05
-8.23118e-07
2.73692e-05
-8.00364e-07
2.73676e-05
-7.77271e-07
2.73661e-05
-7.53904e-07
2.73646e-05
-7.30316e-07
2.73633e-05
-7.06591e-07
2.7362e-05
-6.82823e-07
2.73608e-05
-6.59131e-07
2.73598e-05
-6.35634e-07
2.73589e-05
-6.12499e-07
2.73582e-05
-5.89981e-07
2.73578e-05
-5.68359e-07
2.73577e-05
-5.47977e-07
2.73579e-05
-5.29298e-07
2.73586e-05
-5.1294e-07
2.736e-05
-4.99764e-07
2.73623e-05
-4.9103e-07
2.7366e-05
-4.88942e-07
2.7372e-05
-4.8707e-07
2.73716e-05
-4.55084e-07
2.73406e-05
-6.46345e-07
2.714e-05
-6.03205e-07
2.69028e-05
-1.5984e-06
2.5817e-05
-1.63014e-06
2.4844e-05
-3.42165e-06
2.27871e-05
-4.60236e-06
2.21898e-05
-4.97179e-06
4.22463e-06
-5.08563e-06
3.38298e-06
-4.97104e-06
2.62076e-06
-4.60067e-06
1.9135e-06
-4.00495e-06
1.31818e-06
-3.26575e-06
8.65711e-07
-2.44444e-06
5.38636e-07
-1.60254e-06
3.15655e-07
-7.83381e-07
1.64035e-07
5.14114e-08
1.88865e-08
4.36525e-08
3.84079e-08
1.49126e-07
5.13115e-08
2.94238e-07
7.47669e-08
4.96321e-07
1.26496e-07
7.8941e-07
2.25543e-07
1.19113e-06
3.88835e-07
1.73411e-06
6.30096e-07
2.37866e-06
9.32703e-07
3.10778e-06
3.86448e-06
1.34224e-06
-6.33223e-07
3.70701e-06
8.07556e-07
-4.687e-07
2.96101e-06
-3.37849e-07
2.25165e-06
-2.2999e-07
1.61729e-06
-1.47285e-07
1.08937e-06
-8.25443e-08
7.05968e-07
-3.96622e-08
4.37562e-07
-1.08007e-08
2.53362e-07
7.71441e-10
1.28269e-07
3.78611e-08
6.43667e-09
3.80222e-08
2.61779e-08
1.28374e-07
3.19099e-08
2.52246e-07
2.77696e-08
4.3316e-07
2.20608e-08
6.95178e-07
1.55005e-08
1.07245e-06
2.70039e-08
1.58441e-06
5.56728e-08
2.20551e-06
1.07843e-07
2.90172e-06
3.6317e-06
1.81474e-07
-5.44114e-08
3.5609e-06
1.17709e-07
-5.58432e-09
2.84341e-06
3.23043e-08
2.15599e-06
6.08413e-08
1.54102e-06
7.25123e-08
1.04387e-06
7.30459e-08
6.75806e-07
6.64949e-08
4.19266e-07
4.91714e-08
2.45578e-07
2.60404e-08
1.25108e-07
3.70968e-08
-2.09147e-08
3.7049e-08
8.71203e-09
1.23478e-07
2.45148e-08
2.43218e-07
3.89154e-08
4.14482e-07
5.62712e-08
6.64788e-07
7.46456e-08
1.02698e-06
9.14537e-08
1.51709e-06
1.1019e-07
2.12475e-06
1.35724e-07
2.80015e-06
3.51683e-06
1.607e-07
5.29181e-08
3.45936e-06
1.11982e-08
7.79772e-08
2.75737e-06
1.00671e-07
2.08591e-06
1.0072e-07
1.49088e-06
9.11681e-08
1.00432e-06
7.27514e-08
6.51113e-07
5.33419e-08
4.05324e-07
3.54988e-08
2.36192e-07
1.71037e-08
1.20465e-07
3.61222e-08
4.27031e-09
3.57252e-08
2.39758e-08
1.17966e-07
3.34834e-08
2.34094e-07
3.69811e-08
3.99913e-07
3.82773e-08
6.40461e-07
3.01765e-08
9.9607e-07
3.00403e-08
1.47149e-06
3.04148e-08
2.06601e-06
3.86595e-08
2.73255e-06
3.42391e-06
5.95248e-08
2.12832e-08
3.3905e-06
5.60517e-09
4.75652e-08
2.69597e-06
6.45507e-08
2.04097e-06
7.32132e-08
1.45267e-06
7.58886e-08
9.82747e-07
7.11438e-08
6.31708e-07
6.09516e-08
3.94573e-07
4.41255e-08
2.3101e-07
2.34584e-08
1.16378e-07
3.52325e-08
-1.10454e-08
3.55616e-08
1.95403e-08
1.17049e-07
3.90522e-08
2.31751e-07
5.67605e-08
3.95041e-07
7.29302e-08
6.31372e-07
8.66005e-08
9.80816e-07
9.38629e-08
1.44815e-06
9.8329e-08
2.03296e-06
9.88661e-08
2.68388e-06
3.37495e-06
1.00578e-07
1.92906e-08
3.33469e-06
1.52597e-08
2.63073e-08
2.66113e-06
3.88902e-08
2.01131e-06
4.57748e-08
1.43212e-06
4.91385e-08
9.69467e-07
4.72252e-08
6.23834e-07
4.16146e-08
3.90282e-07
3.07607e-08
2.2897e-07
1.68359e-08
1.156e-07
3.50793e-08
-9.78952e-09
3.49195e-08
1.20032e-08
1.14891e-07
2.61732e-08
2.27379e-07
3.92604e-08
3.87488e-07
5.11638e-08
6.19397e-07
6.08859e-08
9.62749e-07
6.55278e-08
1.42256e-06
6.82555e-08
1.99844e-06
6.85139e-08
2.6447e-06
3.31481e-06
7.00197e-08
1.52078e-08
3.28207e-06
1.29928e-08
2.66564e-08
2.61785e-06
3.95707e-08
1.9769e-06
4.75871e-08
1.40608e-06
5.27046e-08
9.50702e-07
5.19347e-08
6.11123e-07
4.65783e-08
3.82074e-07
3.48624e-08
2.24109e-07
1.91879e-08
1.13178e-07
3.4371e-08
-1.30137e-08
3.43183e-08
8.58074e-09
1.12831e-07
2.16426e-08
2.23155e-07
3.4506e-08
3.80107e-07
4.65028e-08
6.07595e-07
5.7023e-08
9.44806e-07
6.18015e-08
1.39699e-06
6.55178e-08
1.96391e-06
6.61341e-08
2.60053e-06
3.26066e-06
6.98761e-08
-3.98675e-08
3.23705e-06
5.33589e-08
-3.34038e-08
2.58202e-06
-3.11922e-08
1.9502e-06
-2.30328e-08
1.38757e-06
-1.39084e-08
9.38738e-07
-2.80599e-09
6.03954e-07
4.56794e-09
3.7802e-07
6.99032e-09
2.22036e-07
6.03626e-09
1.12303e-07
3.41682e-08
-1.13207e-08
3.38277e-08
-9.88572e-09
1.11195e-07
-9.63325e-09
2.19837e-07
-5.80923e-09
3.743e-07
1.64571e-09
5.98163e-07
9.41058e-09
9.30102e-07
1.87588e-08
1.37537e-06
2.6706e-08
1.93368e-06
3.78993e-08
2.56065e-06
3.2105e-06
5.03932e-08
-6.18408e-08
3.18957e-06
7.44715e-08
-5.3949e-08
2.54401e-06
-4.87174e-08
1.92121e-06
-3.71456e-08
1.3666e-06
-2.45379e-08
9.24258e-07
-1.03349e-08
5.9448e-07
-3.52401e-10
3.72053e-07
4.12149e-09
2.18554e-07
4.63399e-09
1.10578e-07
3.36608e-08
-1.50598e-08
3.3392e-08
-1.39947e-08
1.09697e-07
-1.30092e-08
2.16733e-07
-5.89131e-09
3.68795e-07
7.08897e-09
5.89141e-07
2.121e-08
9.15987e-07
3.67726e-08
1.35469e-06
4.85336e-08
1.90506e-06
6.09766e-08
2.52325e-06
3.1638e-06
7.24607e-08
-9.4376e-08
3.1449e-06
1.04658e-07
-8.55977e-08
2.50777e-06
-7.61046e-08
1.89317e-06
-5.60223e-08
1.3463e-06
-3.43716e-08
9.10572e-07
-1.20196e-08
5.85997e-07
2.75032e-09
3.67138e-07
8.22536e-09
2.15972e-07
7.39959e-09
1.09426e-07
3.33557e-08
-1.9924e-08
3.3279e-08
-1.75367e-08
1.0903e-07
-1.50544e-08
2.14986e-07
-4.26563e-09
3.65206e-07
1.39368e-08
5.82652e-07
3.30707e-08
9.05114e-07
5.24866e-08
1.33795e-06
6.54756e-08
1.88115e-06
7.68655e-08
2.49153e-06
3.12442e-06
8.5186e-08
-6.22085e-09
3.09357e-06
3.02401e-08
7.05541e-09
2.46679e-06
1.00217e-08
1.86202e-06
1.10145e-08
1.32385e-06
9.51388e-09
8.95029e-07
9.23819e-09
5.75732e-07
8.33742e-09
3.60585e-07
6.82485e-09
2.12093e-07
4.90365e-09
1.07445e-07
3.27359e-08
-8.36548e-09
3.24533e-08
-5.59541e-09
1.06498e-07
-2.91749e-09
2.10244e-07
3.16749e-09
3.57573e-07
1.2373e-08
5.7115e-07
2.14876e-08
8.88199e-07
3.16597e-08
1.31402e-06
4.03216e-08
1.84838e-06
5.15936e-08
2.44857e-06
3.0706e-06
6.38395e-08
-5.25987e-08
3.04528e-06
7.16799e-08
-3.93035e-08
2.42849e-06
-3.0982e-08
1.83298e-06
-2.039e-08
1.30285e-06
-1.10627e-08
8.80456e-07
-1.54765e-09
5.6607e-07
4.42438e-09
3.54366e-07
6.09953e-09
2.08361e-07
4.89948e-09
1.05544e-07
3.21621e-08
-8.45694e-09
3.20435e-08
-5.54974e-09
1.04966e-07
1.0661e-09
2.07015e-07
1.51389e-08
3.51902e-07
3.53496e-08
5.61995e-07
5.64478e-08
8.74088e-07
7.78242e-08
1.29362e-06
9.33963e-08
1.82051e-06
1.06527e-07
2.41266e-06
3.02659e-06
1.15327e-07
-8.30644e-09
2.99197e-06
3.5465e-08
1.11393e-09
2.38445e-06
1.15685e-08
1.79813e-06
1.79681e-08
1.27679e-06
2.39888e-08
8.62041e-07
2.59056e-08
5.53858e-07
2.43407e-08
3.46616e-07
1.84109e-08
2.03817e-07
1.04058e-08
1.0326e-07
3.14691e-08
-2.63628e-09
3.13955e-08
1.29586e-09
1.02897e-07
1.0823e-08
2.0297e-07
2.68064e-08
3.45025e-07
4.49352e-08
5.51085e-07
6.44727e-08
8.5732e-07
7.94826e-08
1.26914e-06
9.34291e-08
1.78646e-06
1.03399e-07
2.36794e-06
2.97067e-06
1.15427e-07
-9.87009e-08
2.94888e-06
1.12376e-07
-8.32233e-08
2.35073e-06
-7.08632e-08
1.7736e-06
-5.2619e-08
1.26021e-06
-3.45262e-08
8.5154e-07
-1.63587e-08
5.47607e-07
-3.65409e-09
3.43025e-07
2.33268e-09
2.01889e-07
3.90284e-09
1.02387e-07
3.12509e-08
-1.50781e-08
3.08415e-08
-1.07325e-08
1.01115e-07
-7.43032e-09
1.99413e-07
1.31385e-09
3.38844e-07
1.53753e-08
5.41037e-07
3.00246e-08
8.41595e-07
4.62753e-08
1.24601e-06
5.95723e-08
1.75435e-06
7.48846e-08
2.32605e-06
2.91846e-06
9.04828e-08
-1.06337e-07
2.89455e-06
1.26742e-07
-8.69345e-08
2.30702e-06
-7.12978e-08
1.74023e-06
-5.25866e-08
1.23619e-06
-3.4933e-08
8.35051e-07
-1.77197e-08
5.36842e-07
-5.457e-09
3.36206e-07
6.6666e-10
1.97853e-07
2.73107e-09
1.00331e-07
3.06145e-08
-5.20453e-09
3.0511e-08
-1.03989e-09
9.99529e-08
6.97872e-09
1.97011e-07
2.21799e-08
3.34602e-07
4.37028e-08
5.34027e-07
6.67864e-08
8.30273e-07
9.11726e-08
1.22846e-06
1.11543e-07
1.72838e-06
1.31775e-07
2.29009e-06
2.87198e-06
1.50416e-07
-1.55579e-07
2.85192e-06
1.72868e-07
-1.36027e-07
2.27466e-06
-1.14847e-07
1.71751e-06
-8.85966e-08
1.22144e-06
-6.23608e-08
8.26083e-07
-3.72887e-08
5.31712e-07
-1.8359e-08
3.3339e-07
-7.17819e-09
1.9642e-07
-1.32042e-09
9.97118e-08
3.046e-08
-7.16813e-09
3.02033e-08
-1.94294e-09
9.8907e-08
5.91871e-09
1.94801e-07
2.06032e-08
3.30503e-07
4.15813e-08
5.26888e-07
6.4043e-08
8.1833e-07
8.77677e-08
1.20978e-06
1.07189e-07
1.70099e-06
1.26095e-07
2.25267e-06
2.82399e-06
1.4327e-07
-1.36284e-07
2.79951e-06
1.56451e-07
-1.1785e-07
2.23275e-06
-9.85059e-08
1.68584e-06
-7.48822e-08
1.19904e-06
-5.17705e-08
8.11192e-07
-2.97162e-08
5.22425e-07
-1.33602e-08
3.27794e-07
-4.11526e-09
1.93243e-07
3.4342e-10
9.81343e-08
2.99795e-08
-1.04653e-08
2.95435e-08
-6.72063e-09
9.67546e-08
-1.55538e-09
1.90566e-07
9.90966e-09
3.23307e-07
2.74016e-08
5.15414e-07
4.64735e-08
8.00601e-07
6.76484e-08
1.18392e-06
8.61918e-08
1.66535e-06
1.06198e-07
2.20647e-06
2.76694e-06
1.26362e-07
-1.24242e-07
2.73892e-06
1.51388e-07
-1.04511e-07
2.18366e-06
-8.43244e-08
1.64793e-06
-6.22305e-08
1.1714e-06
-4.16559e-08
7.92023e-07
-2.24708e-08
5.09788e-07
-8.59788e-09
3.197e-07
-1.35921e-09
1.88397e-07
1.4773e-09
9.56453e-08
2.9211e-08
-1.62896e-09
2.89227e-08
-1.04964e-09
9.47029e-08
5.75648e-09
1.86541e-07
2.02385e-08
3.16551e-07
4.13395e-08
5.04791e-07
6.51002e-08
7.84268e-07
9.1183e-08
1.15985e-06
1.15058e-07
1.63143e-06
1.39959e-07
2.16145e-06
2.71042e-06
1.64592e-07
-1.64988e-07
2.68548e-06
1.9425e-07
-1.44923e-07
2.14193e-06
-1.17811e-07
1.61741e-06
-8.9207e-08
1.15046e-06
-6.19122e-08
7.78277e-07
-3.71809e-08
5.01119e-07
-1.86082e-08
3.14335e-07
-7.83004e-09
1.85269e-07
-2.38407e-09
9.40729e-08
2.87331e-08
7.16716e-09
2.85209e-08
5.55298e-09
9.33726e-08
1.46629e-08
1.83865e-07
3.27049e-08
3.11864e-07
5.79939e-08
4.9701e-07
8.69694e-08
7.71601e-07
1.18107e-07
1.14013e-06
1.46439e-07
1.60223e-06
1.73971e-07
2.12108e-06
2.65824e-06
1.99607e-07
-1.82056e-07
2.63305e-06
2.122e-07
-1.62904e-07
2.10084e-06
-1.32958e-07
1.58725e-06
-1.01309e-07
1.12973e-06
-7.07973e-08
7.64798e-07
-4.35003e-08
4.92783e-07
-2.28117e-08
3.09297e-07
-1.04892e-08
1.82381e-07
-3.9839e-09
9.26331e-08
2.8298e-08
7.49083e-10
2.78473e-08
7.25294e-10
9.12064e-08
7.72638e-09
1.79636e-07
2.22844e-08
3.04713e-07
4.3526e-08
4.85606e-07
6.80472e-08
7.53887e-07
9.53866e-08
1.11402e-06
1.21179e-07
1.56574e-06
1.48007e-07
2.07305e-06
2.59827e-06
1.74523e-07
-1.62461e-07
2.56797e-06
1.97179e-07
-1.41969e-07
2.04857e-06
-1.13358e-07
1.54736e-06
-8.4738e-08
1.10105e-06
-5.81836e-08
7.45183e-07
-3.46144e-08
4.80007e-07
-1.70765e-08
3.01174e-07
-6.98338e-09
1.7752e-07
-2.16303e-09
9.01206e-08
2.75112e-08
9.40756e-09
2.72413e-08
5.77904e-09
8.92345e-08
1.42881e-08
1.75777e-07
3.20432e-08
2.98177e-07
5.7169e-08
4.75123e-07
8.63941e-08
7.37365e-07
1.1817e-07
1.0891e-06
1.48036e-07
1.53001e-06
1.77902e-07
2.02503e-06
2.53752e-06
2.06535e-07
-1.84542e-07
2.50913e-06
2.19807e-07
-1.6574e-07
2.00223e-06
-1.33644e-07
1.51313e-06
-1.00967e-07
1.07739e-06
-6.9895e-08
7.29701e-07
-4.24895e-08
4.70347e-07
-2.19028e-08
2.95257e-07
-9.9204e-09
1.74072e-07
-3.9721e-09
8.83727e-08
2.69748e-08
3.44465e-09
2.64932e-08
1.33539e-09
8.68461e-08
8.01668e-09
1.71146e-07
2.27461e-08
2.9039e-07
4.44251e-08
4.6274e-07
6.99125e-08
7.18121e-07
9.86566e-08
1.06065e-06
1.26557e-07
1.4901e-06
1.56104e-07
1.97237e-06
2.47171e-06
1.85944e-07
-1.68021e-07
2.43831e-06
2.07864e-07
-1.47461e-07
1.94541e-06
-1.16226e-07
1.46985e-06
-8.60912e-08
1.04635e-06
-5.8531e-08
7.08502e-07
-3.45341e-08
4.56538e-07
-1.68397e-08
2.86455e-07
-6.85168e-09
1.68781e-07
-2.38097e-09
8.56233e-08
2.61093e-08
1.165e-08
2.57926e-08
6.01787e-09
8.45964e-08
1.39823e-08
1.66787e-07
3.15754e-08
2.83063e-07
5.67694e-08
4.51038e-07
8.65815e-08
6.99714e-07
1.19431e-07
1.03293e-06
1.51137e-07
1.45042e-06
1.83446e-07
1.91916e-06
2.40453e-06
2.14848e-07
-1.86703e-07
2.37248e-06
2.27178e-07
-1.67778e-07
1.89342e-06
-1.33774e-07
1.43132e-06
-1.00222e-07
1.01966e-06
-6.87851e-08
6.91023e-07
-4.14329e-08
4.45614e-07
-2.10532e-08
2.7973e-07
-9.41904e-09
1.64825e-07
-3.92592e-09
8.35899e-08
2.54738e-08
4.14545e-09
2.49487e-08
6.45798e-10
8.1928e-08
6.7356e-09
1.61648e-07
2.11949e-08
2.74455e-07
4.28785e-08
4.37362e-07
6.8798e-08
6.78426e-07
9.85461e-08
1.00139e-06
1.2823e-07
1.40613e-06
1.60255e-07
1.86071e-06
2.33154e-06
1.93177e-07
-1.68034e-07
2.29413e-06
2.12895e-07
-1.46708e-07
1.83044e-06
-1.13836e-07
1.38328e-06
-8.30314e-08
9.85183e-07
-5.54306e-08
6.67491e-07
-3.18022e-08
4.30296e-07
-1.46871e-08
2.69962e-07
-5.42661e-09
1.58936e-07
-1.73569e-09
8.05153e-08
2.44998e-08
1.12701e-08
2.41119e-08
4.37069e-09
7.92753e-08
1.13386e-08
1.56556e-07
2.81084e-08
2.65958e-07
5.26812e-08
4.23866e-07
8.22506e-08
6.57298e-07
1.15504e-07
9.69731e-07
1.4852e-07
1.36107e-06
1.83176e-07
1.80062e-06
2.25597e-06
2.17901e-07
-1.84838e-07
2.21926e-06
2.31259e-07
-1.65147e-07
1.77104e-06
-1.29601e-07
1.33901e-06
-9.56277e-08
9.54349e-07
-6.44843e-08
6.47172e-07
-3.78096e-08
4.17509e-07
-1.8271e-08
2.6202e-07
-7.59655e-09
1.54214e-07
-3.03709e-09
7.8058e-08
2.372e-08
3.64111e-09
2.31496e-08
-1.02622e-09
7.62612e-08
4.42606e-09
1.50792e-07
1.87281e-08
2.56348e-07
4.07062e-08
4.08622e-07
6.73537e-08
6.33549e-07
9.84385e-08
9.34478e-07
1.30078e-07
1.31149e-06
1.64723e-07
1.73518e-06
2.17428e-06
2.01021e-07
-1.73751e-07
2.13291e-06
2.24555e-07
-1.51567e-07
1.70174e-06
-1.1618e-07
1.28634e-06
-8.37844e-08
9.16721e-07
-5.51326e-08
6.21617e-07
-3.0956e-08
4.00925e-07
-1.36568e-08
2.51445e-07
-4.63447e-09
1.47818e-07
-1.44416e-09
7.46994e-08
2.26472e-08
1.40873e-08
2.22022e-08
4.86003e-09
7.32908e-08
1.14786e-08
1.45149e-07
2.84862e-08
2.47019e-07
5.36608e-08
3.93891e-07
8.45082e-08
6.10519e-07
1.19651e-07
8.99891e-07
1.5544e-07
1.26207e-06
1.93551e-07
1.66905e-06
2.09093e-06
2.32482e-07
-1.96657e-07
2.05053e-06
2.49627e-07
-1.75916e-07
1.63657e-06
-1.36431e-07
1.23799e-06
-9.99935e-08
8.83185e-07
-6.70554e-08
5.99559e-07
-3.943e-08
3.87003e-07
-1.92643e-08
2.42724e-07
-8.31807e-09
1.4257e-07
-3.7686e-09
7.19378e-08
2.17628e-08
7.07269e-09
2.11522e-08
5.51893e-10
7.00329e-08
6.16947e-09
1.38971e-07
2.1216e-08
2.36783e-07
4.43807e-08
3.77686e-07
7.29537e-08
5.85199e-07
1.06557e-07
8.62072e-07
1.41462e-07
1.2085e-06
1.79884e-07
1.59793e-06
2.0018e-06
2.20566e-07
-1.88946e-07
1.95672e-06
2.45971e-07
-1.65379e-07
1.56158e-06
-1.25796e-07
1.18132e-06
-9.05646e-08
8.43011e-07
-5.96712e-08
5.72492e-07
-3.40617e-08
3.69542e-07
-1.56987e-08
2.31607e-07
-5.99647e-09
1.35824e-07
-2.47874e-09
6.83691e-08
2.06095e-08
1.87118e-08
2.01172e-08
7.08513e-09
6.68177e-08
1.37868e-08
1.32909e-07
3.14372e-08
2.26807e-07
5.76005e-08
3.61933e-07
9.03022e-08
5.60467e-07
1.27946e-07
8.24712e-07
1.67264e-07
1.15485e-06
2.09502e-07
1.52587e-06
1.9108e-06
2.53247e-07
-2.09643e-07
1.86637e-06
2.69514e-07
-1.87599e-07
1.49018e-06
-1.43991e-07
1.12842e-06
-1.05006e-07
8.06414e-07
-7.02366e-08
5.48478e-07
-4.16358e-08
3.54391e-07
-2.078e-08
2.22084e-07
-9.41577e-09
1.30053e-07
-4.69001e-09
6.53072e-08
1.96215e-08
9.86023e-09
1.89569e-08
1.76686e-09
6.32421e-08
7.43972e-09
1.26172e-07
2.2989e-08
2.15707e-07
4.6998e-08
3.44405e-07
7.71378e-08
5.33063e-07
1.12993e-07
7.83678e-07
1.51184e-07
1.09657e-06
1.93649e-07
1.44834e-06
1.81355e-06
2.39156e-07
-1.99498e-07
1.76419e-06
2.6258e-07
-1.74262e-07
1.40853e-06
-1.31153e-07
1.06681e-06
-9.36839e-08
7.62812e-07
-6.12742e-08
5.19163e-07
-3.48605e-08
3.355e-07
-1.60464e-08
2.1004e-07
-6.19283e-09
1.22715e-07
-2.76805e-09
6.1404e-08
1.83525e-08
2.05277e-08
1.77997e-08
7.45877e-09
5.96734e-08
1.39289e-08
1.19482e-07
3.17431e-08
2.04744e-07
5.83938e-08
3.27124e-07
9.22158e-08
5.05933e-07
1.31638e-07
7.42678e-07
1.73666e-07
1.03771e-06
2.19454e-07
1.36935e-06
1.71389e-06
2.676e-07
-2.17016e-07
1.66521e-06
2.82777e-07
-1.93473e-07
1.33025e-06
-1.47087e-07
1.00878e-06
-1.06472e-07
7.22672e-07
-7.07036e-08
4.92843e-07
-4.1639e-08
3.18892e-07
-2.0585e-08
1.99575e-07
-9.26352e-09
1.16342e-07
-4.75623e-09
5.80017e-08
1.7247e-08
1.11212e-08
1.65378e-08
2.00154e-09
5.58082e-08
7.59113e-09
1.12237e-07
2.3422e-08
1.9285e-07
4.80483e-08
3.0836e-07
7.93255e-08
4.76541e-07
1.16944e-07
6.98525e-07
1.57675e-07
9.74807e-07
2.03401e-07
1.2855e-06
1.60863e-06
2.52879e-07
-2.0701e-07
1.55563e-06
2.7494e-07
-1.80243e-07
1.24279e-06
-1.3466e-07
9.42914e-07
-9.55563e-08
6.76217e-07
-6.20616e-08
4.61727e-07
-3.50287e-08
2.98895e-07
-1.59062e-08
1.8683e-07
-6.02071e-09
1.08554e-07
-2.77726e-09
5.38401e-08
1.58859e-08
2.15122e-08
1.52898e-08
7.38049e-09
5.19851e-08
1.3599e-08
1.05106e-07
3.15056e-08
1.81196e-07
5.85759e-08
2.89986e-07
9.32639e-08
4.47624e-07
1.34078e-07
6.54703e-07
1.78091e-07
9.11775e-07
2.26489e-07
1.20084e-06
1.5018e-06
2.77817e-07
-2.21461e-07
1.44986e-06
2.91497e-07
-1.97297e-07
1.15916e-06
-1.49276e-07
8.80985e-07
-1.07658e-07
6.33474e-07
-7.12473e-08
4.33779e-07
-4.17768e-08
2.81296e-07
-2.04937e-08
1.75737e-07
-9.13897e-09
1.01776e-07
-4.74049e-09
5.02022e-08
1.46956e-08
1.14799e-08
1.39645e-08
1.95936e-09
4.79469e-08
7.57063e-09
9.75692e-08
2.36917e-08
1.68857e-07
4.88862e-08
2.70515e-07
8.10295e-08
4.17032e-07
1.19898e-07
6.08549e-07
1.62246e-07
8.45766e-07
2.10004e-07
1.11261e-06
1.3909e-06
2.61924e-07
-2.10463e-07
1.33565e-06
2.80792e-07
-1.8315e-07
1.06813e-06
-1.36644e-07
8.12593e-07
-9.68312e-08
5.85403e-07
-6.28067e-08
4.01711e-07
-3.5342e-08
2.60754e-07
-1.59311e-08
1.62653e-07
-5.92641e-09
9.37657e-08
-2.68008e-09
4.59051e-08
1.3284e-08
2.07656e-08
1.26607e-08
6.65906e-09
4.39776e-08
1.27195e-08
9.01968e-08
3.05673e-08
1.56837e-07
5.7745e-08
2.51559e-07
9.26037e-08
3.87135e-07
1.33781e-07
5.63128e-07
1.78272e-07
7.80321e-07
2.27408e-07
1.02463e-06
1.27987e-06
2.7978e-07
-2.19407e-07
1.2264e-06
2.90405e-07
-1.95278e-07
9.8175e-07
-1.47745e-07
7.48668e-07
-1.06543e-07
5.41353e-07
-7.0535e-08
3.72976e-07
-4.12728e-08
2.42695e-07
-2.01088e-08
1.51271e-07
-8.83975e-09
8.67948e-08
-4.43023e-09
4.21463e-08
1.20466e-08
9.19931e-09
1.13286e-08
1.11797e-09
3.99386e-08
7.00885e-09
8.26788e-08
2.32673e-08
1.44531e-07
4.86264e-08
2.32091e-07
8.07039e-08
3.56412e-07
1.19476e-07
5.16557e-07
1.61487e-07
7.13473e-07
2.08896e-07
9.35083e-07
1.16721e-06
2.60563e-07
-2.06352e-07
1.11198e-06
2.74988e-07
-1.7902e-07
8.90644e-07
-1.34111e-07
6.80347e-07
-9.53224e-08
4.93494e-07
-6.20796e-08
3.41201e-07
-3.49919e-08
2.22443e-07
-1.57411e-08
1.38419e-07
-5.73721e-09
7.89329e-08
-2.26751e-09
3.79226e-08
1.06545e-08
1.7765e-08
1.00295e-08
5.14493e-09
3.60016e-08
1.11464e-08
7.53869e-08
2.8614e-08
1.32655e-07
5.52427e-08
2.13345e-07
8.91409e-08
3.26787e-07
1.29133e-07
4.71468e-07
1.72098e-07
6.48444e-07
2.1955e-07
8.47656e-07
1.0569e-06
2.70264e-07
-2.09724e-07
1.00481e-06
2.77868e-07
-1.86526e-07
8.05895e-07
-1.41489e-07
6.17637e-07
-1.02193e-07
4.50313e-07
-6.77541e-08
3.13064e-07
-3.95904e-08
2.04773e-07
-1.91448e-08
1.27277e-07
-8.2789e-09
7.20964e-08
-3.89906e-09
3.42252e-08
9.43295e-09
6.3263e-09
8.77348e-09
3.254e-10
3.22073e-08
6.46037e-09
6.83318e-08
2.24208e-08
1.21086e-07
4.71939e-08
1.94962e-07
7.80673e-08
2.97612e-07
1.15185e-07
4.27012e-07
1.54802e-07
5.84383e-07
1.99235e-07
7.61642e-07
9.48551e-07
2.47541e-07
-1.94671e-07
8.96851e-07
2.5825e-07
-1.69197e-07
7.20094e-07
-1.27641e-07
5.53489e-07
-9.13491e-08
4.056e-07
-6.00111e-08
2.83588e-07
-3.42315e-08
1.86138e-07
-1.57254e-08
1.15533e-07
-5.94628e-09
6.49392e-08
-2.21797e-09
3.03793e-08
8.16002e-09
1.67991e-08
7.58612e-09
4.76876e-09
2.86212e-08
1.03444e-08
6.1706e-08
2.67304e-08
1.10292e-07
5.17438e-08
1.77867e-07
8.34682e-08
2.70455e-07
1.20737e-07
3.85468e-07
1.6037e-07
5.24239e-07
2.03781e-07
6.80585e-07
8.46121e-07
2.49912e-07
-1.90524e-07
7.99187e-07
2.52927e-07
-1.71827e-07
6.43226e-07
-1.31018e-07
4.96915e-07
-9.48538e-08
3.6684e-07
-6.27335e-08
2.58388e-07
-3.63318e-08
1.70267e-07
-1.72398e-08
1.05442e-07
-7.31359e-09
5.86815e-08
-3.78176e-09
2.69641e-08
7.02081e-09
1.51674e-08
6.3873e-09
1.34025e-09
2.50501e-08
4.49563e-09
5.51727e-08
1.80045e-08
9.9767e-08
4.04229e-08
1.61401e-07
6.9484e-08
2.44562e-07
1.04608e-07
3.46098e-07
1.41625e-07
4.67373e-07
1.82296e-07
6.03931e-07
7.49562e-07
2.249e-07
-1.77932e-07
7.04686e-07
2.25466e-07
-1.50858e-07
5.68383e-07
-1.18773e-07
4.41172e-07
-8.92655e-08
3.28182e-07
-6.28292e-08
2.33052e-07
-3.94238e-08
1.54335e-07
-2.11225e-08
9.54368e-08
-9.58315e-09
5.25875e-08
-2.51131e-09
2.36875e-08
5.94185e-09
4.75922e-09
5.42745e-09
1.26974e-09
2.21336e-08
7.79428e-09
4.96866e-08
2.2756e-08
9.06176e-08
4.49582e-08
1.46589e-07
7.18647e-08
2.20692e-07
1.03406e-07
3.09386e-07
1.36136e-07
4.14253e-07
1.72354e-07
5.32536e-07
6.59507e-07
2.10863e-07
-1.66106e-07
6.19136e-07
2.11306e-07
-1.44504e-07
5.00456e-07
-1.13539e-07
3.90591e-07
-8.40517e-08
2.93144e-07
-5.73092e-08
2.1015e-07
-3.38769e-08
1.39993e-07
-1.63591e-08
8.64719e-08
-6.40478e-09
4.71504e-08
-1.69089e-09
2.07725e-08
4.97807e-09
1.24112e-08
4.47299e-09
1.91397e-09
1.92469e-08
6.13565e-09
4.43427e-08
1.98025e-08
8.19e-08
4.13442e-08
1.32799e-07
6.80654e-08
1.98863e-07
9.92674e-08
2.76149e-07
1.3063e-07
3.66348e-07
1.64019e-07
4.68203e-07
5.78509e-07
1.97831e-07
-1.58828e-07
5.43187e-07
1.97711e-07
-1.41356e-07
4.40306e-07
-1.14259e-07
3.45947e-07
-8.75168e-08
2.62334e-07
-6.20199e-08
1.90082e-07
-3.87267e-08
1.27456e-07
-2.03051e-08
7.86433e-08
-8.97228e-09
4.24006e-08
-2.26595e-09
1.8225e-08
4.13875e-09
9.53673e-09
3.71027e-09
1.65954e-09
1.69399e-08
6.86842e-09
4.003e-08
2.12243e-08
7.47538e-08
4.2844e-08
1.21278e-07
6.88156e-08
1.80302e-07
9.80589e-08
2.47513e-07
1.26379e-07
3.24713e-07
1.55491e-07
4.11985e-07
5.07338e-07
1.84239e-07
-1.6259e-07
4.78109e-07
1.95564e-07
-1.49636e-07
3.88793e-07
-1.22511e-07
3.07905e-07
-9.21381e-08
2.36294e-07
-6.21673e-08
1.73318e-07
-3.46219e-08
1.1713e-07
-1.46904e-08
7.22751e-08
-4.20349e-09
3.85628e-08
-1.14184e-09
1.61632e-08
3.4557e-09
-2.67235e-09
3.16062e-09
-1.49203e-09
1.52772e-08
5.40436e-09
3.68704e-08
1.97874e-08
6.93682e-08
4.05159e-08
1.12307e-07
6.43545e-08
1.65424e-07
9.0499e-08
2.24048e-07
1.14756e-07
2.90086e-07
1.39453e-07
3.64766e-07
4.47165e-07
1.63641e-07
-1.37451e-07
4.20478e-07
1.70908e-07
-1.25408e-07
3.43148e-07
-9.98158e-08
2.74064e-07
-7.30738e-08
2.1306e-07
-4.78463e-08
1.5837e-07
-2.57188e-08
1.08004e-07
-1.01296e-08
6.67551e-08
-2.55827e-09
3.53181e-08
-1.19184e-09
1.44532e-08
2.89046e-09
-1.12891e-09
2.67062e-09
-1.17922e-10
1.37601e-08
7.17935e-09
3.39787e-08
2.18751e-08
6.44763e-08
4.24562e-08
1.04263e-07
6.56524e-08
1.52263e-07
9.02133e-08
2.03531e-07
1.11989e-07
2.60056e-07
1.33026e-07
3.24026e-07
3.95451e-07
1.52578e-07
-1.25701e-07
3.72856e-07
1.56627e-07
-1.18055e-07
3.05568e-07
-9.42213e-08
2.46343e-07
-6.90512e-08
1.94097e-07
-4.49509e-08
1.46193e-07
-2.38063e-08
1.00562e-07
-8.95432e-09
6.22412e-08
-2.00987e-09
3.26641e-08
-1.15961e-09
1.30675e-08
2.44312e-09
-5.1952e-10
2.27847e-09
4.53326e-11
1.2532e-08
7.12885e-09
3.16065e-08
2.15155e-08
6.04136e-08
4.15135e-08
9.75336e-08
6.38086e-08
1.41228e-07
8.68496e-08
1.86332e-07
1.06449e-07
2.34899e-07
1.24327e-07
2.89948e-07
3.52182e-07
1.39883e-07
-1.13176e-07
3.33177e-07
1.41511e-07
-1.09379e-07
2.74316e-07
-8.75843e-08
2.23307e-07
-6.42735e-08
1.78343e-07
-4.16292e-08
1.36082e-07
-2.17162e-08
9.44085e-08
-7.77402e-09
5.85475e-08
-1.48728e-09
3.05278e-08
-1.09267e-09
1.19731e-08
2.09713e-09
3.96341e-10
1.97199e-09
2.96382e-10
1.15519e-08
6.92484e-09
2.96771e-08
2.05856e-08
5.70587e-08
3.94889e-08
9.19317e-08
6.0395e-08
1.32029e-07
8.15708e-08
1.72023e-07
9.8877e-08
2.14011e-07
1.13795e-07
2.61605e-07
3.16254e-07
1.25661e-07
-9.97255e-08
3.0025e-07
1.26153e-07
-9.96596e-08
2.48334e-07
-7.96614e-08
2.0409e-07
-5.82157e-08
1.65127e-07
-3.72261e-08
1.27545e-07
-1.88489e-08
8.91914e-08
-6.12258e-09
5.54257e-08
-7.15517e-10
2.87443e-08
-9.53463e-10
1.10762e-08
1.81985e-09
1.18371e-09
1.73901e-09
5.98902e-10
1.07777e-08
6.91529e-09
2.81096e-08
2.00362e-08
5.4282e-08
3.8063e-08
8.72611e-08
5.7837e-08
1.24371e-07
7.74531e-08
1.6017e-07
9.28634e-08
1.96782e-07
1.05305e-07
2.3831e-07
2.86737e-07
1.14109e-07
-8.83889e-08
2.73354e-07
1.12927e-07
-9.1061e-08
2.2713e-07
-7.28119e-08
1.88388e-07
-5.31478e-08
1.54292e-07
-3.3693e-08
1.2052e-07
-1.66856e-08
8.49032e-08
-4.97397e-09
5.28896e-08
-2.43148e-10
2.73316e-08
-8.96193e-10
1.03923e-08
1.61949e-09
2.1264e-09
1.5644e-09
8.95653e-10
1.01637e-08
6.79916e-09
2.68207e-08
1.92522e-08
5.1953e-08
3.62618e-08
8.33265e-08
5.48111e-08
1.1796e-07
7.2858e-08
1.50344e-07
8.64998e-08
1.82619e-07
9.67358e-08
2.19242e-07
2.62647e-07
1.02895e-07
-7.75818e-08
2.51184e-07
1.00703e-07
-8.21133e-08
2.09679e-07
-6.55549e-08
1.75399e-07
-4.7679e-08
1.45242e-07
-2.98107e-08
1.14588e-07
-1.42705e-08
8.12592e-08
-3.6687e-09
5.07475e-08
3.16248e-10
2.6165e-08
-7.89186e-10
9.84863e-09
1.46935e-09
1.15404e-09
1.49423e-09
9.6469e-10
9.85961e-09
7.11466e-09
2.60708e-08
1.95248e-08
5.04111e-08
3.63034e-08
8.0481e-08
5.43068e-08
1.13079e-07
7.14643e-08
1.42669e-07
8.37561e-08
1.71425e-07
9.21346e-08
2.04092e-07
2.43389e-07
9.58575e-08
-6.9998e-08
2.34404e-07
8.98933e-08
-7.89045e-08
1.9658e-07
-6.36161e-08
1.65868e-07
-4.62048e-08
1.38843e-07
-2.87451e-08
1.10655e-07
-1.33324e-08
7.91039e-08
-3.03061e-09
4.97049e-08
8.00128e-10
2.57558e-08
-4.29765e-10
9.74159e-09
1.46525e-09
6.36868e-09
1.46858e-09
1.37811e-09
9.66216e-09
5.25017e-09
2.5498e-08
1.52636e-08
4.91505e-08
2.91208e-08
7.80986e-08
4.4531e-08
1.08986e-07
5.91746e-08
1.36279e-07
6.98265e-08
1.62161e-07
7.66648e-08
1.91577e-07
2.27441e-07
7.89258e-08
-4.58943e-08
2.18713e-07
6.98508e-08
-5.96891e-08
1.83984e-07
-4.57367e-08
1.56218e-07
-3.17082e-08
1.31793e-07
-1.78129e-08
1.05742e-07
-6.27631e-09
7.58949e-08
1.02753e-09
4.77282e-08
2.60209e-09
2.46581e-08
-2.97661e-10
9.23701e-09
1.3304e-09
1.27154e-08
1.27255e-09
-3.2145e-11
8.98571e-09
4.08363e-10
2.41145e-08
7.90652e-09
4.67614e-08
1.95726e-08
7.43587e-08
3.3692e-08
1.03468e-07
4.7546e-08
1.28655e-07