/*--------------------------------*- C++ -*----------------------------------*\
| =========                 |                                                 |
| \\      /  F ield         | OpenFOAM: The Open Source CFD Toolbox           |
|  \\    /   O peration     | Version:  v2006                                 |
|   \\  /    A nd           | Website:  www.openfoam.com                      |
|    \\/     M anipulation  |                                                 |
\*---------------------------------------------------------------------------*/
FoamFile
{
    version     2.0;
    format      ascii;
    class       volScalarField;
    location    "0.05";
    object      rho;
}
// * * * * * * * * * * * * * * * * * * * * * * * * * * * * * * * * * * * * * //

dimensions      [1 -3 0 0 0 0 0];


internalField   nonuniform List<scalar> 
38348
(
1.19577
1.19616
1.1767
1.17614
1.17623
1.17597
1.17636
1.17625
1.17634
1.17631
1.17632
1.17632
1.17632
1.17632
1.17632
1.17632
1.17632
1.17632
1.17632
1.17632
1.17632
1.17632
1.17632
1.17632
1.17632
1.17632
1.17632
1.17632
1.17632
1.17632
1.17632
1.17632
1.17632
1.17632
1.17632
1.17632
1.17632
1.17632
1.17632
1.17632
1.17632
1.17632
1.17632
1.17632
1.17632
1.17632
1.17632
1.17632
1.17632
1.17632
1.17632
1.17632
1.17632
1.17632
1.17632
1.17632
1.17633
1.17633
1.17633
1.17633
1.17633
1.17633
1.17633
1.17633
1.17633
1.17633
1.17633
1.17633
1.17633
1.17633
1.17633
1.17633
1.17633
1.17633
1.17633
1.17633
1.17633
1.17633
1.17633
1.17633
1.17633
1.17633
1.17633
1.17633
1.17633
1.17633
1.17633
1.17633
1.17633
1.17633
1.17633
1.17633
1.17633
1.17633
1.17633
1.17633
1.17633
1.17633
1.17633
1.17633
1.17633
1.17633
1.17633
1.17633
1.17633
1.17633
1.17633
1.17633
1.17633
1.17633
1.17633
1.17633
1.17633
1.17633
1.17633
1.17633
1.17633
1.17633
1.17633
1.17633
1.17633
1.17633
1.17633
1.17633
1.17633
1.17633
1.17633
1.17633
1.17633
1.17633
1.17633
1.17633
1.17633
1.17633
1.17633
1.17633
1.17633
1.17633
1.17633
1.17633
1.17633
1.17633
1.17633
1.17633
1.17633
1.17633
1.17634
1.17634
1.17634
1.17634
1.17634
1.17634
1.17634
1.17634
1.17634
1.17634
1.17633
1.17636
1.17626
1.17634
1.1759
1.17609
1.17608
1.17689
1.17658
1.17726
1.17778
1.17828
1.17846
1.17837
1.17786
1.17749
1.17712
1.19815
1.19878
1.19874
1.19861
1.19821
1.19777
1.19717
1.19674
1.19641
1.1962
1.20272
1.2024
1.20324
1.20374
1.2041
1.20419
1.20412
1.20383
1.20362
1.20346
1.20526
1.20549
1.20544
1.20529
1.20499
1.20465
1.20425
1.20392
1.20355
1.20312
1.20119
1.20093
1.20042
1.19987
1.19942
1.19906
1.19882
1.19864
1.19856
1.19853
1.19846
1.19833
1.19821
1.19797
1.19778
1.19769
1.19783
1.19822
1.19883
1.19951
1.2006
1.20009
1.19982
1.19967
1.19967
1.19971
1.19974
1.19968
1.19966
1.19962
1.20359
1.20362
1.20352
1.20334
1.20305
1.2027
1.20236
1.20211
1.20195
1.20184
1.20039
1.20022
1.19951
1.19889
1.19842
1.19813
1.19798
1.19794
1.19795
1.19798
1.20296
1.20277
1.20261
1.2023
1.20191
1.20145
1.20108
1.20081
1.20073
1.20081
1.20032
1.20032
1.19987
1.1996
1.19945
1.19941
1.19942
1.19946
1.19951
1.19954
1.20226
1.20209
1.20194
1.20165
1.20132
1.20095
1.20069
1.20055
1.2006
1.20075
1.19992
1.19973
1.19896
1.19842
1.19808
1.19793
1.1979
1.19796
1.19803
1.19808
1.20176
1.20158
1.20141
1.20109
1.20074
1.20036
1.20011
1.20002
1.20015
1.20042
1.19969
1.19987
1.19937
1.19917
1.19923
1.1994
1.1997
1.19998
1.20021
1.20032
1.20084
1.20075
1.2006
1.2004
1.20018
1.20001
1.19991
1.19995
1.20014
1.2004
1.20009
1.20032
1.19994
1.1998
1.19987
1.20004
1.20032
1.20059
1.2008
1.20091
1.20082
1.20067
1.2005
1.2003
1.2001
1.19997
1.19991
1.19999
1.20019
1.20045
1.19968
1.19989
1.19935
1.19904
1.19895
1.199
1.19923
1.1995
1.19973
1.19987
1.19986
1.19966
1.19947
1.19927
1.19907
1.19899
1.199
1.19918
1.1995
1.1999
1.20024
1.2004
1.20007
1.20006
1.20029
1.20063
1.201
1.2013
1.2015
1.20157
1.20139
1.20128
1.20115
1.20099
1.20081
1.20066
1.20057
1.20058
1.2007
1.20086
1.20056
1.20077
1.20045
1.20031
1.20036
1.20051
1.20075
1.20097
1.20116
1.20125
1.20107
1.20082
1.20066
1.20051
1.20037
1.20031
1.20029
1.20039
1.20055
1.20073
1.19978
1.19972
1.19897
1.19856
1.19845
1.19865
1.19899
1.19944
1.19977
1.19996
1.202
1.20169
1.20162
1.2015
1.20136
1.20116
1.20098
1.20084
1.20083
1.2009
1.2005
1.20083
1.20064
1.20061
1.20076
1.20098
1.20129
1.20159
1.20182
1.20194
1.20103
1.2009
1.20074
1.20056
1.20036
1.20022
1.20013
1.20018
1.20033
1.20054
1.20054
1.2007
1.20052
1.20048
1.20062
1.20083
1.20113
1.20141
1.20163
1.20174
1.20354
1.20327
1.20309
1.20288
1.20261
1.20236
1.20206
1.20182
1.20159
1.20144
1.20169
1.20214
1.20245
1.20273
1.20306
1.20336
1.2037
1.20398
1.20421
1.20434
1.20383
1.2036
1.20342
1.20323
1.20299
1.20276
1.20248
1.20221
1.20193
1.2017
1.20124
1.20158
1.20169
1.20185
1.2021
1.20235
1.20267
1.20295
1.20317
1.20329
1.20225
1.20207
1.20192
1.20174
1.20154
1.20139
1.20125
1.20117
1.20114
1.20115
1.20096
1.20107
1.20105
1.20107
1.20124
1.20144
1.20173
1.20199
1.2022
1.20232
1.20335
1.20305
1.20287
1.20267
1.20243
1.20222
1.20198
1.20178
1.20159
1.20146
1.20198
1.20217
1.2026
1.20289
1.20322
1.2035
1.20381
1.20407
1.20429
1.20442
1.20532
1.20492
1.20472
1.20453
1.20428
1.20403
1.20367
1.20327
1.20278
1.20233
1.20239
1.20261
1.20319
1.20356
1.20391
1.20418
1.20447
1.20471
1.20491
1.20504
1.20422
1.20393
1.20376
1.2036
1.2034
1.20323
1.20298
1.20273
1.20239
1.20208
1.20196
1.20207
1.20248
1.20274
1.20302
1.20326
1.20353
1.20377
1.20396
1.20408
1.20503
1.20461
1.2044
1.20421
1.20398
1.20374
1.20341
1.20305
1.2026
1.2022
1.20235
1.20247
1.20306
1.20343
1.20377
1.20403
1.20431
1.20455
1.20475
1.20489
1.2043
1.20398
1.20381
1.20364
1.20346
1.20329
1.20305
1.2028
1.20246
1.20214
1.20207
1.20211
1.20256
1.20283
1.20311
1.20334
1.2036
1.20382
1.20401
1.20413
1.20505
1.20461
1.20439
1.2042
1.20397
1.20375
1.20342
1.20306
1.20262
1.20222
1.20234
1.20239
1.20299
1.20335
1.20369
1.20395
1.20423
1.20447
1.20467
1.2048
1.20413
1.2038
1.20362
1.20346
1.20328
1.20312
1.20291
1.20268
1.20237
1.20208
1.20198
1.20196
1.20236
1.20259
1.20284
1.20305
1.20331
1.20353
1.20371
1.20384
1.2047
1.20426
1.20404
1.20385
1.20363
1.20342
1.20313
1.20282
1.20243
1.20209
1.20224
1.2022
1.20274
1.20304
1.20334
1.20358
1.20386
1.2041
1.2043
1.20444
1.20372
1.20338
1.2032
1.20304
1.20287
1.20274
1.20256
1.20239
1.20214
1.20191
1.20192
1.2018
1.20218
1.20237
1.20259
1.20277
1.20302
1.20323
1.20342
1.20355
1.2047
1.20422
1.204
1.20382
1.20361
1.20342
1.20315
1.20285
1.20246
1.20211
1.20241
1.20228
1.20289
1.20321
1.2035
1.20371
1.20397
1.20419
1.20438
1.20452
1.20397
1.20359
1.2034
1.20325
1.2031
1.20297
1.20279
1.20259
1.20229
1.20201
1.20212
1.20193
1.20241
1.20265
1.20288
1.20306
1.20328
1.20348
1.20366
1.20379
1.20494
1.20442
1.2042
1.20403
1.20384
1.20367
1.20339
1.20307
1.20263
1.20223
1.20256
1.20233
1.20302
1.20336
1.20365
1.20385
1.20408
1.20428
1.20446
1.2046
1.20406
1.20366
1.20347
1.20333
1.20318
1.20307
1.2029
1.20269
1.20238
1.20207
1.20219
1.20193
1.20245
1.20268
1.20291
1.20307
1.20329
1.20347
1.20365
1.20377
1.20486
1.20432
1.2041
1.20393
1.20375
1.20359
1.20333
1.20303
1.2026
1.20221
1.20254
1.20223
1.20292
1.20325
1.20352
1.2037
1.20393
1.20412
1.2043
1.20444
1.20396
1.20354
1.20335
1.20321
1.20307
1.20298
1.20281
1.20262
1.20232
1.20203
1.20218
1.20186
1.20238
1.20261
1.20282
1.20297
1.20317
1.20336
1.20352
1.20365
1.20474
1.20418
1.20395
1.20379
1.20362
1.20347
1.20323
1.20294
1.20253
1.20215
1.2025
1.20214
1.20282
1.20313
1.20339
1.20356
1.20378
1.20398
1.20416
1.2043
1.2039
1.20347
1.20328
1.20314
1.20301
1.20291
1.20275
1.20257
1.20228
1.20199
1.20215
1.20182
1.20234
1.20256
1.20277
1.20292
1.20313
1.20332
1.20349
1.20362
1.20466
1.2041
1.20387
1.2037
1.20353
1.20338
1.20314
1.20287
1.20247
1.20211
1.20242
1.20206
1.2027
1.203
1.20326
1.20345
1.20368
1.20389
1.20409
1.20423
1.20383
1.20342
1.20323
1.20309
1.20294
1.20283
1.20267
1.20248
1.2022
1.20193
1.20205
1.20177
1.20224
1.20245
1.20267
1.20285
1.20308
1.20329
1.20348
1.20361
1.20454
1.20401
1.20378
1.20361
1.20342
1.20327
1.20302
1.20276
1.20238
1.20205
1.20233
1.20201
1.20259
1.20287
1.20314
1.20334
1.20359
1.20382
1.20403
1.20418
1.20376
1.20338
1.2032
1.20305
1.2029
1.20278
1.2026
1.20241
1.20213
1.20188
1.20201
1.20179
1.20223
1.20244
1.20268
1.20287
1.20311
1.20333
1.20352
1.20365
1.20456
1.20406
1.20384
1.20367
1.20349
1.20334
1.20309
1.20281
1.20243
1.20208
1.20242
1.20213
1.20273
1.20303
1.20328
1.20346
1.20368
1.20387
1.20405
1.20419
1.20334
1.20288
1.20271
1.20261
1.20255
1.20254
1.20246
1.20234
1.20211
1.20186
1.20182
1.202
1.20236
1.20264
1.20299
1.20332
1.20369
1.20399
1.20422
1.20435
1.20379
1.20346
1.20328
1.20313
1.20295
1.20279
1.20259
1.20238
1.20213
1.2019
1.20181
1.20188
1.20221
1.20242
1.20267
1.20289
1.20316
1.2034
1.2036
1.20373
1.20371
1.20328
1.2031
1.20297
1.20286
1.20278
1.20263
1.20246
1.2022
1.20194
1.20186
1.202
1.20237
1.20265
1.20299
1.20332
1.20369
1.204
1.20425
1.20438
1.20416
1.20375
1.20356
1.2034
1.20324
1.2031
1.20289
1.20267
1.20236
1.20206
1.20219
1.20246
1.20296
1.20327
1.20355
1.20375
1.20398
1.20418
1.20436
1.20449
1.20443
1.20416
1.204
1.20381
1.20357
1.20334
1.20305
1.20276
1.20242
1.20212
1.20214
1.20222
1.2026
1.20279
1.20295
1.20306
1.20321
1.20334
1.20348
1.20359
1.20456
1.20429
1.20412
1.20393
1.20369
1.20345
1.20315
1.20284
1.20248
1.20215
1.20221
1.20222
1.20262
1.20281
1.20297
1.20307
1.20321
1.20334
1.20348
1.20359
1.20472
1.20444
1.20427
1.20408
1.20384
1.2036
1.20328
1.20296
1.20257
1.20222
1.20222
1.20218
1.20259
1.20278
1.20293
1.20302
1.20315
1.20328
1.20341
1.20351
1.20473
1.20445
1.20429
1.20411
1.20387
1.20363
1.20332
1.20299
1.2026
1.20223
1.20221
1.2021
1.2025
1.20267
1.2028
1.20286
1.20298
1.20309
1.2032
1.20331
1.20473
1.20445
1.20428
1.20411
1.20388
1.20364
1.20333
1.20301
1.20261
1.20224
1.20218
1.202
1.20239
1.20254
1.20265
1.2027
1.2028
1.2029
1.203
1.20311
1.20466
1.20438
1.20422
1.20405
1.20383
1.20361
1.20331
1.20299
1.20259
1.20223
1.20215
1.20193
1.20228
1.20239
1.20248
1.20251
1.20259
1.20268
1.20278
1.20287
1.20487
1.2046
1.20445
1.20428
1.20405
1.20382
1.2035
1.20315
1.20272
1.20232
1.20211
1.20191
1.20236
1.20255
1.20266
1.20271
1.20279
1.20287
1.20296
1.20305
1.20414
1.20385
1.2037
1.20355
1.20337
1.2032
1.20296
1.2027
1.20236
1.20204
1.20204
1.20157
1.20192
1.20198
1.202
1.20197
1.202
1.20204
1.20211
1.20219
1.2036
1.20323
1.20307
1.20295
1.20283
1.20274
1.20261
1.20245
1.2022
1.20194
1.20217
1.20216
1.20266
1.20291
1.20308
1.20317
1.20328
1.20337
1.20347
1.20357
1.20308
1.20275
1.20261
1.20251
1.20242
1.20237
1.20227
1.20217
1.20198
1.20178
1.2018
1.20104
1.20122
1.20112
1.20096
1.20078
1.20067
1.20062
1.20063
1.2007
1.20303
1.20271
1.20258
1.20248
1.20238
1.20232
1.20222
1.2021
1.20191
1.20171
1.20173
1.20094
1.20111
1.201
1.20085
1.20069
1.20059
1.20055
1.20057
1.20064
1.20306
1.20274
1.2026
1.20251
1.20241
1.20235
1.20224
1.20212
1.20193
1.20173
1.20178
1.20114
1.20135
1.20126
1.20111
1.20093
1.20082
1.20076
1.20077
1.20082
1.20268
1.20236
1.20222
1.20214
1.20207
1.20204
1.20199
1.20192
1.20179
1.20163
1.20171
1.20101
1.20117
1.20104
1.20087
1.20067
1.20054
1.20048
1.20048
1.20054
1.20283
1.20252
1.20239
1.2023
1.20221
1.20215
1.20206
1.20196
1.20179
1.20162
1.20167
1.20096
1.20115
1.20107
1.20093
1.20077
1.20068
1.20064
1.20066
1.20072
1.20269
1.20239
1.20226
1.20216
1.20208
1.20202
1.20194
1.20185
1.20169
1.20154
1.20159
1.20081
1.20099
1.20089
1.20075
1.2006
1.20051
1.20047
1.20049
1.20055
1.20244
1.20213
1.20201
1.20192
1.20185
1.20182
1.20175
1.20169
1.20157
1.20145
1.20153
1.2007
1.20083
1.20071
1.20055
1.2004
1.20031
1.20027
1.20029
1.20034
1.20228
1.20195
1.20182
1.20174
1.20169
1.20168
1.20166
1.20164
1.20156
1.20145
1.20184
1.20159
1.20193
1.20204
1.20209
1.20209
1.20211
1.20215
1.2022
1.20227
1.20219
1.20189
1.20178
1.20171
1.20167
1.20166
1.20165
1.20163
1.20156
1.20146
1.20146
1.20071
1.20077
1.20061
1.20042
1.20024
1.20014
1.20008
1.20009
1.20014
1.20186
1.20153
1.20141
1.20134
1.20132
1.20135
1.20138
1.20142
1.2014
1.20134
1.20173
1.20136
1.20163
1.20166
1.20164
1.20157
1.20154
1.20154
1.20158
1.20164
1.20168
1.20139
1.20128
1.20122
1.2012
1.20124
1.20128
1.20133
1.20132
1.20128
1.20131
1.20044
1.20045
1.20023
1.19999
1.19975
1.1996
1.19952
1.1995
1.19954
1.20129
1.20099
1.20088
1.20083
1.20082
1.20088
1.20095
1.20104
1.20107
1.20109
1.2012
1.20022
1.2002
1.19995
1.19967
1.19942
1.19925
1.19916
1.19914
1.19918
1.20094
1.20064
1.20053
1.20049
1.2005
1.20058
1.20068
1.20081
1.20089
1.20095
1.20109
1.20001
1.19997
1.19969
1.19939
1.19912
1.19894
1.19884
1.19882
1.19886
1.2006
1.2003
1.20019
1.20016
1.20018
1.20028
1.20041
1.20058
1.20069
1.20079
1.20098
1.19982
1.19974
1.19943
1.19911
1.19882
1.19863
1.19853
1.1985
1.19853
1.2003
1.20001
1.1999
1.19988
1.19991
1.20004
1.20019
1.20038
1.20054
1.20067
1.20089
1.19967
1.19956
1.19923
1.1989
1.19861
1.19842
1.19831
1.19829
1.19832
1.19992
1.1996
1.1995
1.19948
1.19954
1.1997
1.19991
1.20016
1.20037
1.20055
1.20111
1.20019
1.20019
1.19997
1.19971
1.19946
1.19929
1.19919
1.19917
1.19921
1.19997
1.19968
1.19959
1.19957
1.19963
1.19979
1.19999
1.20022
1.20043
1.20061
1.20085
1.19966
1.1995
1.19914
1.19878
1.19847
1.19826
1.19814
1.1981
1.19813
1.19971
1.1994
1.1993
1.19928
1.19936
1.19953
1.19976
1.20004
1.20028
1.20049
1.20104
1.20005
1.20001
1.19975
1.19946
1.19918
1.19898
1.19887
1.19884
1.19887
1.19972
1.19944
1.19934
1.19934
1.19941
1.19958
1.1998
1.20007
1.20031
1.20052
1.20081
1.19959
1.19943
1.19905
1.19868
1.19835
1.19813
1.198
1.19796
1.19798
1.19953
1.19924
1.19914
1.19914
1.19921
1.19939
1.19963
1.19992
1.20018
1.20041
1.20076
1.19951
1.19932
1.19893
1.19855
1.19821
1.19798
1.19785
1.19781
1.19783
1.19935
1.19906
1.19897
1.19897
1.19905
1.19925
1.1995
1.19981
1.2001
1.20035
1.20071
1.19942
1.19923
1.19884
1.19845
1.19811
1.19788
1.19775
1.1977
1.19772
1.19918
1.1989
1.19881
1.19881
1.1989
1.1991
1.19937
1.1997
1.20001
1.20028
1.20068
1.19938
1.19917
1.19876
1.19836
1.19801
1.19778
1.19765
1.1976
1.19762
1.19905
1.19877
1.19869
1.19869
1.19879
1.199
1.19929
1.19963
1.19995
1.20024
1.20064
1.19933
1.19911
1.1987
1.1983
1.19795
1.19771
1.19758
1.19753
1.19755
1.19894
1.19867
1.19859
1.19859
1.19869
1.19891
1.1992
1.19955
1.19989
1.20019
1.20063
1.19933
1.1991
1.19868
1.19827
1.19792
1.19769
1.19755
1.1975
1.19752
1.19892
1.19865
1.19857
1.19858
1.19868
1.1989
1.19919
1.19954
1.19988
1.20018
1.20062
1.19932
1.19909
1.19869
1.19829
1.19795
1.19772
1.19759
1.19755
1.19757
1.19879
1.19852
1.19844
1.19846
1.19856
1.19879
1.19909
1.19946
1.19982
1.20013
1.2006
1.19929
1.19905
1.19864
1.19824
1.1979
1.19768
1.19755
1.1975
1.19752
1.19895
1.19871
1.19863
1.19865
1.19874
1.19895
1.19923
1.19957
1.1999
1.2002
1.20066
1.19944
1.19926
1.19889
1.19853
1.19822
1.19801
1.19789
1.19784
1.19786
1.19904
1.19881
1.19874
1.19875
1.19884
1.19903
1.19929
1.1996
1.19991
1.2002
1.20062
1.19933
1.19921
1.19894
1.19864
1.19839
1.19821
1.19813
1.1981
1.19813
1.19837
1.19812
1.1981
1.19816
1.19831
1.19853
1.19886
1.19922
1.19961
1.19995
1.20058
1.19936
1.19914
1.1988
1.19847
1.1982
1.19802
1.19791
1.19787
1.19788
1.19826
1.19822
1.19824
1.19831
1.19842
1.19856
1.19877
1.19904
1.19936
1.19971
1.20093
1.19981
1.19972
1.19941
1.19902
1.19865
1.19837
1.1982
1.19814
1.19815
1.19916
1.19877
1.1988
1.19893
1.19915
1.19943
1.19975
1.20006
1.20033
1.20053
1.20113
1.20113
1.20112
1.20112
1.20112
1.20112
1.20112
1.20111
1.20111
1.20111
1.20111
1.20111
1.20112
1.20112
1.20112
1.20112
1.20112
1.20112
1.20112
1.20112
1.20083
1.20033
1.20017
1.19986
1.1995
1.19914
1.19884
1.19862
1.19852
1.19851
1.1991
1.19873
1.19869
1.1988
1.19904
1.19937
1.19972
1.20006
1.20033
1.20055
1.20094
1.20003
1.20001
1.19976
1.19943
1.19909
1.19879
1.19859
1.19848
1.19848
1.19919
1.19884
1.19887
1.19901
1.19923
1.19951
1.19982
1.2001
1.20035
1.20053
1.20097
1.20012
1.2001
1.19986
1.19953
1.19921
1.19893
1.19874
1.19864
1.19864
1.19964
1.19934
1.19937
1.19947
1.19965
1.19987
1.2001
1.20031
1.2005
1.20063
1.20097
1.20018
1.20016
1.19994
1.19962
1.19929
1.19899
1.19877
1.19865
1.19863
1.19957
1.19926
1.19927
1.19936
1.19951
1.19971
1.19995
1.20017
1.20038
1.20054
1.20098
1.20014
1.20012
1.19988
1.19953
1.19918
1.19886
1.19863
1.19851
1.19849
1.19983
1.19952
1.19954
1.19962
1.19976
1.19994
1.20015
1.20034
1.20052
1.20064
1.20095
1.20009
1.20004
1.19977
1.19939
1.19899
1.19863
1.19837
1.19822
1.1982
1.19968
1.19935
1.19936
1.19944
1.19959
1.19978
1.20001
1.20023
1.20043
1.20059
1.20101
1.20019
1.20015
1.19988
1.19955
1.19921
1.19892
1.19871
1.19861
1.19861
1.19939
1.19905
1.19901
1.19911
1.19932
1.19962
1.19993
1.20023
1.20046
1.20065
1.20102
1.20019
1.20017
1.19991
1.19959
1.19925
1.19896
1.19876
1.19866
1.19866
1.1994
1.19904
1.199
1.1991
1.19932
1.19962
1.19993
1.20023
1.20047
1.20065
1.20103
1.20019
1.20017
1.1999
1.19957
1.19922
1.19892
1.19871
1.1986
1.1986
1.19936
1.19899
1.19895
1.19905
1.19928
1.19958
1.19991
1.20022
1.20046
1.20065
1.20103
1.20016
1.20015
1.19987
1.19953
1.19917
1.19887
1.19865
1.19854
1.19853
1.19937
1.19899
1.19895
1.19905
1.19927
1.19958
1.19991
1.20022
1.20046
1.20064
1.20099
1.20005
1.20009
1.19985
1.19953
1.19917
1.19887
1.19865
1.19854
1.19853
1.19929
1.19892
1.19889
1.19899
1.19922
1.19953
1.19986
1.20019
1.20045
1.20064
1.20104
1.20018
1.20016
1.19987
1.19952
1.19915
1.19883
1.1986
1.19848
1.19847
1.19947
1.19909
1.19905
1.19915
1.19937
1.19967
1.19998
1.20028
1.20051
1.20068
1.20109
1.20029
1.20031
1.20007
1.19976
1.19942
1.19912
1.19891
1.1988
1.1988
1.19979
1.19942
1.19937
1.19946
1.19965
1.19992
1.20019
1.20044
1.20063
1.20077
1.20115
1.20042
1.20048
1.20028
1.20001
1.19971
1.19945
1.19926
1.19916
1.19916
1.2002
1.19984
1.1998
1.19987
1.20002
1.20024
1.20045
1.20064
1.20078
1.20087
1.20117
1.20051
1.2007
1.20064
1.20049
1.20029
1.2001
1.19996
1.19989
1.1999
1.20124
1.20095
1.2009
1.20092
1.20097
1.20105
1.2011
1.20114
1.20114
1.20113
1.20102
1.20007
1.19994
1.19952
1.19902
1.1985
1.19805
1.19773
1.19756
1.19754
1.19974
1.19936
1.19931
1.19941
1.19961
1.19988
1.20016
1.20042
1.2006
1.20075
1.20108
1.20024
1.20022
1.19994
1.19957
1.19917
1.19881
1.19856
1.19843
1.19842
1.20064
1.20028
1.20023
1.20027
1.20039
1.20054
1.20068
1.2008
1.20087
1.20092
1.20107
1.20016
1.20012
1.19979
1.19937
1.19892
1.19853
1.19824
1.19809
1.19808
1.20042
1.20003
1.19998
1.20004
1.20017
1.20036
1.20054
1.20069
1.20079
1.20086
1.20109
1.20006
1.20021
1.20004
1.19976
1.19941
1.19911
1.19888
1.19877
1.19878
1.20009
1.1997
1.19965
1.19972
1.19989
1.20013
1.20038
1.20062
1.20079
1.2009
1.2013
1.20076
1.20096
1.20094
1.20089
1.20079
1.20071
1.20065
1.20063
1.20066
1.20052
1.20013
1.20007
1.20013
1.20025
1.20044
1.20062
1.20078
1.20088
1.20095
1.20136
1.20092
1.20117
1.20122
1.20122
1.20118
1.20113
1.2011
1.20109
1.20113
1.20078
1.2004
1.20033
1.20038
1.20049
1.20065
1.2008
1.20093
1.201
1.20104
1.2014
1.20098
1.20127
1.20135
1.20139
1.20138
1.20137
1.20135
1.20136
1.2014
1.20081
1.20041
1.20035
1.20039
1.2005
1.20067
1.20081
1.20093
1.20099
1.20102
1.20133
1.20066
1.2011
1.20127
1.20136
1.20138
1.20138
1.20138
1.20139
1.20143
1.20068
1.20026
1.2002
1.20027
1.20042
1.20063
1.20083
1.20099
1.20109
1.20112
1.20143
1.20099
1.20127
1.20135
1.20138
1.20136
1.20133
1.20131
1.20132
1.20136
1.20079
1.20038
1.20031
1.20036
1.20048
1.20065
1.20081
1.20094
1.201
1.20104
1.20142
1.20101
1.20132
1.20143
1.20149
1.20149
1.2015
1.20148
1.2015
1.20154
1.20039
1.19997
1.19991
1.19999
1.20015
1.20038
1.20059
1.20079
1.20091
1.20099
1.20142
1.20108
1.20125
1.20116
1.2009
1.20052
1.20005
1.19962
1.19932
1.19921
1.20433
1.20416
1.20399
1.20364
1.20321
1.20274
1.20234
1.20196
1.20167
1.20144
1.20138
1.20103
1.20109
1.2009
1.20056
1.20008
1.19953
1.19903
1.19869
1.19857
1.20388
1.20365
1.20347
1.20314
1.20275
1.20234
1.20201
1.20172
1.20153
1.20138
1.20159
1.20192
1.20212
1.20225
1.20224
1.20211
1.20184
1.20155
1.20131
1.20121
1.20586
1.20586
1.20562
1.20512
1.20448
1.20379
1.20316
1.20261
1.20219
1.20185
1.2016
1.20169
1.20179
1.20175
1.20154
1.20117
1.20068
1.20019
1.19982
1.19968
1.20497
1.20484
1.20465
1.20427
1.20379
1.20326
1.20279
1.20236
1.20205
1.20184
1.20202
1.20157
1.20176
1.20191
1.2019
1.20176
1.20145
1.20109
1.20078
1.20067
1.20345
1.20307
1.20294
1.20269
1.20248
1.20225
1.20215
1.202
1.20163
1.20049
1.20328
1.20218
1.20171
1.20123
1.20084
1.20054
1.20037
1.2003
1.20031
1.20036
1.20284
1.20253
1.20237
1.20225
1.20215
1.2021
1.20203
1.20195
1.20185
1.20176
1.2016
1.20106
1.20123
1.20113
1.20081
1.2004
1.19994
1.19957
1.19935
1.1993
1.20467
1.20436
1.2041
1.20366
1.20318
1.20267
1.20226
1.2019
1.20164
1.20142
1.20167
1.20146
1.20176
1.20184
1.20169
1.20136
1.20092
1.20049
1.20021
1.2001
1.20545
1.20519
1.20489
1.20436
1.20379
1.20321
1.20275
1.20235
1.20206
1.20181
1.20186
1.20235
1.20273
1.20301
1.2031
1.20302
1.20279
1.20252
1.20231
1.20224
1.20695
1.20692
1.2066
1.20595
1.20519
1.20435
1.20364
1.20297
1.20248
1.20206
1.20164
1.20153
1.20186
1.20199
1.2019
1.2016
1.20114
1.20066
1.20032
1.20018
1.2048
1.20465
1.20439
1.2039
1.20335
1.20278
1.20236
1.20201
1.20178
1.20159
1.20175
1.20176
1.20201
1.20218
1.20217
1.20193
1.20149
1.20094
1.20048
1.20026
1.20546
1.20553
1.20533
1.20482
1.20419
1.20355
1.20302
1.2026
1.20238
1.20259
1.20063
1.20254
1.20324
1.20364
1.20376
1.20375
1.20355
1.20331
1.20312
1.20308
1.20581
1.20509
1.20457
1.20372
1.20294
1.20211
1.2016
1.20129
1.20156
1.2025
1.20205
1.20314
1.20317
1.20303
1.20271
1.20231
1.20187
1.20157
1.20141
1.20141
1.20568
1.20544
1.20508
1.20446
1.20383
1.20318
1.20269
1.20228
1.202
1.20179
1.20162
1.202
1.20228
1.20251
1.20256
1.20243
1.20213
1.20181
1.20154
1.20145
1.20615
1.20621
1.20586
1.20519
1.20442
1.20362
1.20299
1.20249
1.20217
1.20204
1.20231
1.20276
1.203
1.20364
1.20431
1.20487
1.20514
1.20516
1.20503
1.20491
1.20487
1.20483
1.20456
1.20401
1.20343
1.20291
1.20265
1.20249
1.20208
1.20033
1.20298
1.20333
1.2028
1.20279
1.20314
1.20363
1.20429
1.20491
1.20537
1.20562
1.20381
1.2033
1.20293
1.20263
1.20233
1.20219
1.20202
1.20195
1.20189
1.20191
1.2015
1.20248
1.20273
1.20311
1.20337
1.20355
1.20356
1.20354
1.20349
1.20349
1.20611
1.20645
1.20606
1.20528
1.20445
1.20363
1.20299
1.20251
1.20223
1.20209
1.20221
1.20157
1.20199
1.20249
1.20296
1.2033
1.20343
1.20335
1.20319
1.20309
1.20298
1.20283
1.20262
1.20224
1.20191
1.20164
1.20159
1.20153
1.20112
1.19928
1.20304
1.20198
1.20166
1.20173
1.20202
1.20235
1.20266
1.2029
1.20302
1.20307
1.2024
1.20228
1.20224
1.20221
1.20211
1.20197
1.20186
1.2018
1.20202
1.20274
1.1995
1.20254
1.20406
1.20486
1.20523
1.20504
1.20446
1.20362
1.20291
1.20249
1.20524
1.20674
1.20655
1.20585
1.20445
1.20297
1.20174
1.20109
1.20168
1.2037
1.20075
1.20531
1.2053
1.20524
1.20507
1.2044
1.20347
1.20243
1.20162
1.20119
1.20513
1.20532
1.20492
1.20423
1.20351
1.20286
1.20245
1.20222
1.20217
1.20204
1.20184
1.20154
1.20115
1.20102
1.20105
1.20108
1.20107
1.20099
1.20091
1.20088
1.20439
1.20493
1.20484
1.20447
1.2039
1.20329
1.2027
1.20224
1.20184
1.20101
1.20086
1.20178
1.20217
1.20245
1.20279
1.20312
1.20334
1.20342
1.20341
1.20338
1.20446
1.20405
1.20366
1.2032
1.20273
1.20233
1.20197
1.20184
1.20203
1.20281
1.20105
1.20255
1.20224
1.20228
1.20238
1.2027
1.20306
1.20361
1.20404
1.20436
1.2056
1.20412
1.20345
1.20259
1.20215
1.20182
1.20193
1.20204
1.2022
1.20193
1.20165
1.20274
1.20287
1.20324
1.20388
1.20452
1.20527
1.20589
1.20638
1.20665
1.20471
1.20471
1.20457
1.20433
1.20398
1.20359
1.20317
1.2028
1.20246
1.20211
1.20223
1.20327
1.20332
1.20357
1.20402
1.20449
1.20511
1.20565
1.20608
1.20631
1.20556
1.20525
1.20494
1.20454
1.20403
1.20354
1.20302
1.20263
1.2023
1.2021
1.20158
1.20265
1.20253
1.20279
1.20314
1.20364
1.20411
1.20464
1.20502
1.20527
1.20427
1.20333
1.20302
1.20265
1.20253
1.20243
1.2025
1.2025
1.20255
1.20253
1.20098
1.20217
1.20258
1.20305
1.20365
1.20421
1.20479
1.20526
1.20559
1.20577
1.20427
1.20441
1.20432
1.2041
1.20375
1.20335
1.20292
1.20253
1.20222
1.20206
1.20174
1.20257
1.20234
1.20248
1.20271
1.20316
1.20367
1.2043
1.20475
1.20506
1.20469
1.20434
1.20425
1.20416
1.2041
1.20396
1.20381
1.20355
1.20333
1.20316
1.20162
1.20271
1.203
1.2034
1.20393
1.20445
1.20502
1.2055
1.20586
1.20606
1.20612
1.20618
1.20606
1.20576
1.20526
1.20467
1.20402
1.20342
1.20291
1.20265
1.20237
1.2032
1.20318
1.20345
1.20377
1.20434
1.20497
1.20576
1.20634
1.20675
1.20532
1.20491
1.20475
1.20459
1.20447
1.2043
1.20416
1.20395
1.20385
1.20394
1.20171
1.20304
1.20392
1.20467
1.20535
1.20586
1.20623
1.20646
1.2066
1.20667
1.20614
1.2061
1.20605
1.20591
1.20562
1.20521
1.20465
1.20402
1.20337
1.20293
1.20426
1.20495
1.20535
1.20572
1.20608
1.20637
1.20666
1.2069
1.20708
1.20719
1.20596
1.20578
1.20558
1.2053
1.2049
1.20446
1.20391
1.20338
1.20273
1.20218
1.20223
1.20314
1.20325
1.20363
1.20404
1.20453
1.20495
1.20536
1.20565
1.20583
1.20536
1.20469
1.20454
1.20435
1.20431
1.20421
1.20415
1.20397
1.20375
1.20342
1.20163
1.2027
1.20314
1.20367
1.20432
1.20494
1.20557
1.20609
1.20648
1.2067
1.20636
1.20639
1.20624
1.20592
1.20538
1.20476
1.20407
1.20343
1.20289
1.20259
1.2024
1.20325
1.20327
1.20359
1.20397
1.20458
1.20523
1.20604
1.20662
1.20703
1.20554
1.20507
1.2049
1.2047
1.20456
1.20436
1.20421
1.20398
1.20385
1.20392
1.20155
1.20293
1.20374
1.20444
1.20509
1.20559
1.20599
1.20624
1.20641
1.2065
1.20602
1.20572
1.20556
1.20538
1.20511
1.20478
1.20434
1.20384
1.20332
1.20299
1.20387
1.20447
1.20475
1.20505
1.2054
1.20571
1.20606
1.20635
1.20657
1.20669
1.20672
1.20648
1.20627
1.20597
1.20552
1.20501
1.20437
1.20371
1.20293
1.20214
1.20263
1.20343
1.20372
1.2042
1.2047
1.20526
1.20577
1.2063
1.20666
1.20692
1.20565
1.20481
1.20458
1.20437
1.20436
1.20432
1.20435
1.20426
1.20418
1.20415
1.20134
1.20264
1.20351
1.20421
1.20486
1.20537
1.20581
1.20612
1.20633
1.20646
1.20594
1.20586
1.20577
1.2056
1.20527
1.20483
1.20426
1.20364
1.20305
1.20271
1.20399
1.20447
1.20477
1.20511
1.20544
1.20571
1.206
1.20623
1.20641
1.20653
1.2063
1.20607
1.20584
1.20554
1.2051
1.20464
1.20405
1.20347
1.2027
1.20192
1.20232
1.20307
1.20319
1.20355
1.20393
1.20438
1.20475
1.20514
1.20541
1.2056
1.20499
1.20436
1.20421
1.20406
1.20403
1.20395
1.20391
1.20376
1.2036
1.20338
1.20153
1.20269
1.20325
1.20386
1.20456
1.2052
1.20585
1.20639
1.20679
1.20703
1.20647
1.20634
1.20613
1.20579
1.20527
1.2047
1.20405
1.20345
1.20293
1.20271
1.2026
1.20309
1.20324
1.2036
1.20398
1.20454
1.20512
1.20583
1.20632
1.20669
1.20476
1.205
1.20507
1.20514
1.20502
1.20477
1.20442
1.20404
1.20385
1.20409
1.20183
1.203
1.20396
1.20465
1.20521
1.20557
1.20584
1.20602
1.20615
1.20624
1.20664
1.2061
1.20583
1.20558
1.2053
1.20508
1.20479
1.20454
1.20427
1.20408
1.20149
1.2027
1.20349
1.20416
1.20477
1.2054
1.20592
1.20633
1.20659
1.20671
1.20568
1.20556
1.20561
1.20562
1.20542
1.20505
1.20451
1.20387
1.20327
1.20292
1.20399
1.20454
1.20503
1.20542
1.20581
1.20611
1.20641
1.20664
1.20682
1.20693
1.2067
1.20631
1.20606
1.20576
1.20535
1.20489
1.20429
1.20365
1.20289
1.2022
1.2026
1.20328
1.2036
1.20404
1.20444
1.20489
1.2053
1.20577
1.20611
1.20639
1.20498
1.20406
1.20382
1.2036
1.2036
1.2036
1.20372
1.20374
1.20375
1.20373
1.20136
1.20256
1.2034
1.20407
1.20474
1.20527
1.20576
1.20613
1.20641
1.20658
1.20629
1.20611
1.20595
1.2057
1.20531
1.20485
1.20427
1.20367
1.20311
1.2028
1.20392
1.20429
1.20459
1.20491
1.20531
1.20565
1.20602
1.20631
1.20653
1.20665
1.207
1.20662
1.20633
1.20595
1.20546
1.20493
1.20429
1.20364
1.20285
1.20212
1.20256
1.20324
1.2034
1.20374
1.20405
1.20446
1.20482
1.20528
1.20562
1.20589
1.20481
1.20393
1.20368
1.20346
1.20345
1.20346
1.20361
1.20367
1.20374
1.20377
1.20136
1.20271
1.20357
1.20431
1.20506
1.20569
1.20631
1.2068
1.20716
1.20736
1.20672
1.20626
1.20597
1.20565
1.20523
1.20481
1.20429
1.20378
1.2033
1.20317
1.20451
1.20457
1.20491
1.20529
1.2058
1.20632
1.20688
1.20734
1.20766
1.20784
1.20698
1.20665
1.20642
1.20613
1.20573
1.20525
1.20462
1.20394
1.20306
1.20225
1.20403
1.20495
1.20525
1.20572
1.20614
1.20658
1.20692
1.20733
1.2076
1.20781
1.20563
1.20505
1.20481
1.20449
1.20422
1.20392
1.20369
1.20334
1.20295
1.20239
1.20236
1.20272
1.20298
1.20337
1.20377
1.20427
1.20472
1.20521
1.20556
1.20581
1.20379
1.20299
1.20281
1.20269
1.20281
1.20295
1.20318
1.2033
1.2034
1.20356
1.20087
1.20206
1.20292
1.20354
1.20411
1.20455
1.20497
1.20529
1.20552
1.20567
1.20575
1.20543
1.20524
1.20499
1.20465
1.20428
1.20381
1.20335
1.20291
1.20282
1.20367
1.20345
1.20381
1.20415
1.20449
1.20478
1.20496
1.20504
1.20507
1.20507
1.20523
1.20487
1.20466
1.20442
1.20413
1.20382
1.20339
1.20287
1.20209
1.20138
1.20374
1.20439
1.20457
1.20494
1.20532
1.20577
1.20615
1.2066
1.2069
1.20713
1.20536
1.20475
1.20448
1.20413
1.20383
1.20353
1.20333
1.20303
1.20269
1.20211
1.20222
1.20229
1.20256
1.2029
1.20325
1.20365
1.20399
1.20434
1.20458
1.20475
1.2031
1.20253
1.20243
1.20238
1.20251
1.20266
1.20285
1.20294
1.20303
1.20324
1.20071
1.20178
1.20267
1.20333
1.20394
1.20443
1.20486
1.20517
1.20539
1.2055
1.20422
1.20373
1.20354
1.2034
1.20325
1.20311
1.20287
1.20261
1.20237
1.20245
1.20365
1.20329
1.20384
1.20435
1.2048
1.20519
1.20533
1.20533
1.20524
1.20516
1.20341
1.20347
1.20355
1.20359
1.20354
1.20333
1.20298
1.20248
1.20179
1.20115
1.20314
1.20338
1.20357
1.2038
1.20401
1.20423
1.20441
1.20465
1.20483
1.20499
1.20416
1.20363
1.20342
1.20319
1.203
1.20281
1.20269
1.20247
1.20226
1.20196
1.20204
1.2021
1.20231
1.20255
1.20276
1.20302
1.20325
1.20352
1.20372
1.20388
1.20271
1.2021
1.20198
1.20192
1.20206
1.20224
1.20248
1.20263
1.20275
1.20286
1.20087
1.20179
1.20253
1.20304
1.2035
1.20384
1.20419
1.20448
1.20471
1.20486
1.20456
1.20432
1.20425
1.20419
1.20406
1.2039
1.20366
1.20344
1.20323
1.20316
1.20117
1.20201
1.2024
1.2028
1.20319
1.20369
1.20416
1.20462
1.20492
1.2051
1.20399
1.20385
1.20389
1.20389
1.20379
1.20359
1.2033
1.20296
1.20266
1.20258
1.20316
1.20328
1.20339
1.20348
1.20368
1.2039
1.20419
1.20445
1.20466
1.20479
1.2059
1.20564
1.20542
1.20511
1.20468
1.2042
1.20361
1.20302
1.2023
1.20167
1.20239
1.20262
1.20264
1.20276
1.20283
1.20301
1.20322
1.20359
1.20388
1.20414
1.20258
1.20206
1.20189
1.20176
1.20176
1.20181
1.20201
1.2022
1.20249
1.20281
1.20095
1.2019
1.20248
1.20284
1.20317
1.20342