/*--------------------------------*- C++ -*----------------------------------*\
| =========                 |                                                 |
| \\      /  F ield         | OpenFOAM: The Open Source CFD Toolbox           |
|  \\    /   O peration     | Version:  v2006                                 |
|   \\  /    A nd           | Website:  www.openfoam.com                      |
|    \\/     M anipulation  |                                                 |
\*---------------------------------------------------------------------------*/
FoamFile
{
    version     2.0;
    format      ascii;
    class       volScalarField;
    location    "0.05";
    object      T;
}
// * * * * * * * * * * * * * * * * * * * * * * * * * * * * * * * * * * * * * //

dimensions      [0 0 0 1 0 0 0];


internalField   nonuniform List<scalar> 
38348
(
291.313
291.219
296.036
296.177
296.153
296.219
296.121
296.148
296.126
296.134
296.132
296.131
296.131
296.131
296.131
296.131
296.132
296.132
296.132
296.132
296.132
296.132
296.132
296.132
296.132
296.132
296.132
296.132
296.132
296.132
296.131
296.131
296.131
296.131
296.131
296.131
296.131
296.131
296.131
296.13
296.13
296.13
296.13
296.13
296.13
296.13
296.13
296.13
296.13
296.13
296.13
296.13
296.13
296.13
296.13
296.13
296.13
296.13
296.129
296.13
296.13
296.13
296.13
296.13
296.13
296.13
296.13
296.13
296.13
296.13
296.13
296.13
296.13
296.13
296.13
296.13
296.13
296.13
296.13
296.13
296.129
296.129
296.129
296.129
296.129
296.129
296.129
296.129
296.129
296.129
296.129
296.129
296.129
296.129
296.129
296.129
296.129
296.129
296.129
296.129
296.129
296.129
296.129
296.129
296.129
296.129
296.129
296.129
296.129
296.129
296.129
296.129
296.129
296.129
296.129
296.129
296.129
296.129
296.129
296.129
296.129
296.129
296.129
296.129
296.129
296.129
296.129
296.129
296.129
296.129
296.129
296.129
296.129
296.129
296.129
296.129
296.129
296.129
296.129
296.129
296.129
296.129
296.128
296.128
296.128
296.128
296.128
296.127
296.127
296.127
296.127
296.127
296.127
296.126
296.126
296.127
296.129
296.123
296.146
296.127
296.237
296.189
296.191
295.989
296.067
295.894
295.764
295.639
295.595
295.615
295.746
295.838
295.93
290.736
290.583
290.593
290.625
290.721
290.829
290.975
291.078
291.159
291.21
289.632
289.708
289.506
289.386
289.3
289.278
289.294
289.364
289.415
289.453
289.022
288.965
288.978
289.014
289.087
289.167
289.262
289.343
289.433
289.536
290.001
290.063
290.187
290.32
290.429
290.515
290.575
290.616
290.636
290.644
290.661
290.694
290.723
290.781
290.826
290.848
290.813
290.719
290.572
290.405
290.143
290.266
290.331
290.368
290.367
290.359
290.351
290.364
290.369
290.38
289.422
289.415
289.438
289.482
289.553
289.635
289.719
289.779
289.818
289.844
290.195
290.235
290.407
290.556
290.669
290.74
290.777
290.787
290.783
290.777
289.573
289.62
289.658
289.733
289.827
289.936
290.028
290.092
290.11
290.092
290.21
290.211
290.319
290.384
290.421
290.431
290.429
290.418
290.407
290.399
289.743
289.782
289.819
289.889
289.969
290.057
290.121
290.154
290.143
290.106
290.308
290.354
290.539
290.669
290.754
290.79
290.798
290.783
290.765
290.752
289.862
289.906
289.948
290.023
290.109
290.2
290.261
290.284
290.252
290.186
290.364
290.32
290.441
290.488
290.475
290.432
290.36
290.292
290.238
290.211
290.085
290.107
290.144
290.191
290.244
290.284
290.31
290.299
290.254
290.191
290.266
290.21
290.302
290.335
290.319
290.277
290.209
290.145
290.093
290.067
290.09
290.127
290.167
290.215
290.265
290.294
290.31
290.289
290.242
290.179
290.366
290.315
290.445
290.521
290.541
290.53
290.474
290.41
290.352
290.318
290.321
290.369
290.415
290.464
290.513
290.532
290.53
290.486
290.409
290.312
290.23
290.19
290.27
290.273
290.217
290.135
290.045
289.973
289.926
289.907
289.952
289.978
290.009
290.048
290.092
290.127
290.151
290.147
290.118
290.079
290.152
290.101
290.179
290.212
290.2
290.165
290.107
290.052
290.008
289.986
290.028
290.089
290.128
290.163
290.199
290.213
290.217
290.193
290.155
290.111
290.341
290.355
290.538
290.637
290.663
290.614
290.531
290.424
290.344
290.298
289.804
289.88
289.897
289.925
289.959
290.008
290.05
290.084
290.087
290.07
290.167
290.087
290.133
290.14
290.104
290.051
289.975
289.904
289.847
289.818
290.038
290.07
290.108
290.153
290.202
290.235
290.256
290.245
290.209
290.156
290.156
290.119
290.161
290.171
290.137
290.086
290.014
289.948
289.895
289.867
289.433
289.498
289.543
289.594
289.658
289.718
289.789
289.848
289.903
289.938
289.879
289.771
289.695
289.628
289.548
289.477
289.396
289.328
289.273
289.242
289.363
289.42
289.461
289.508
289.566
289.621
289.689
289.753
289.821
289.876
289.987
289.907
289.878
289.842
289.781
289.719
289.643
289.576
289.523
289.493
289.744
289.787
289.825
289.867
289.915
289.951
289.986
290.004
290.013
290.009
290.055
290.028
290.034
290.028
289.988
289.939
289.869
289.806
289.755
289.727
289.48
289.551
289.596
289.643
289.7
289.751
289.81
289.857
289.903
289.934
289.81
289.764
289.66
289.589
289.51
289.444
289.368
289.305
289.254
289.222
289.006
289.101
289.149
289.195
289.255
289.316
289.402
289.499
289.617
289.724
289.709
289.657
289.517
289.429
289.345
289.281
289.211
289.152
289.104
289.072
289.271
289.34
289.381
289.42
289.466
289.509
289.567
289.63
289.71
289.784
289.814
289.787
289.689
289.626
289.558
289.501
289.435
289.379
289.334
289.305
289.076
289.177
289.226
289.272
289.329
289.385
289.465
289.553
289.66
289.757
289.72
289.692
289.548
289.46
289.378
289.316
289.247
289.19
289.142
289.11
289.25
289.327
289.369
289.408
289.453
289.494
289.55
289.612
289.694
289.771
289.788
289.778
289.669
289.604
289.537
289.482
289.419
289.365
289.321
289.292
289.07
289.177
289.228
289.274
289.329
289.384
289.462
289.548
289.656
289.752
289.721
289.711
289.565
289.478
289.397
289.336
289.268
289.211
289.163
289.13
289.292
289.372
289.415
289.454
289.496
289.533
289.585
289.64
289.714
289.784
289.809
289.815
289.717
289.662
289.602
289.551
289.49
289.436
289.392
289.362
289.154
289.261
289.313
289.359
289.412
289.462
289.533
289.607
289.7
289.782
289.746
289.756
289.626
289.553
289.481
289.424
289.357
289.299
289.25
289.216
289.389
289.471
289.515
289.554
289.594
289.626
289.668
289.711
289.771
289.827
289.823
289.852
289.761
289.715
289.662
289.617
289.559
289.507
289.462
289.432
289.155
289.27
289.323
289.366
289.416
289.461
289.528
289.599
289.693
289.778
289.705
289.736
289.589
289.513
289.443
289.392
289.33
289.278
289.231
289.198
289.331
289.422
289.466
289.503
289.54
289.57
289.614
289.663
289.734
289.802
289.775
289.821
289.705
289.648
289.592
289.549
289.495
289.447
289.404
289.374
289.096
289.222
289.275
289.316
289.361
289.403
289.469
289.546
289.652
289.749
289.668
289.724
289.558
289.477
289.407
289.36
289.304
289.255
289.211
289.178
289.308
289.405
289.45
289.485
289.519
289.546
289.588
289.638
289.713
289.787
289.758
289.822
289.696
289.639
289.585
289.545
289.494
289.449
289.408
289.377
289.115
289.246
289.3
289.34
289.383
289.421
289.483
289.556
289.659
289.754
289.673
289.748
289.582
289.504
289.438
289.394
289.34
289.294
289.25
289.216
289.332
289.434
289.479
289.513
289.545
289.569
289.608
289.654
289.726
289.797
289.761
289.838
289.712
289.658
289.607
289.57
289.522
289.478
289.437
289.406
289.145
289.279
289.334
289.373
289.415
289.45
289.508
289.577
289.675
289.767
289.683
289.771
289.607
289.533
289.47
289.428
289.375
289.328
289.285
289.25
289.346
289.45
289.496
289.53
289.562
289.585
289.623
289.667
289.738
289.805
289.768
289.848
289.723
289.67
289.619
289.582
289.532
289.487
289.445
289.414
289.164
289.298
289.354
289.394
289.436
289.471
289.529
289.595
289.691
289.778
289.702
289.789
289.634
289.564
289.5
289.456
289.399
289.348
289.302
289.267
289.362
289.461
289.507
289.543
289.577
289.603
289.643
289.688
289.756
289.82
289.792
289.859
289.746
289.695
289.642
289.599
289.543
289.493
289.447
289.415
289.192
289.319
289.374
289.417
289.462
289.499
289.557
289.622
289.712
289.793
289.724
289.801
289.661
289.594
289.53
289.482
289.42
289.365
289.316
289.28
289.38
289.47
289.515
289.55
289.587
289.616
289.659
289.705
289.772
289.833
289.802
289.855
289.749
289.697
289.641
289.595
289.536
289.484
289.438
289.406
289.188
289.308
289.361
289.401
289.445
289.482
289.542
289.608
289.701
289.785
289.703
289.772
289.627
289.556
289.495
289.453
289.4
289.353
289.31
289.277
289.481
289.592
289.634
289.656
289.671
289.675
289.693
289.722
289.778
289.838
289.846
289.804
289.718
289.65
289.566
289.486
289.398
289.325
289.269
289.239
289.372
289.453
289.495
289.532
289.575
289.613
289.662
289.711
289.773
289.829
289.849
289.833
289.754
289.703
289.643
289.59
289.524
289.466
289.418
289.389
289.392
289.496
289.539
289.569
289.598
289.617
289.652
289.693
289.756
289.819
289.839
289.805
289.716
289.648
289.565
289.486
289.397
289.322
289.263
289.231
289.285
289.383
289.429
289.466
289.506
289.539
289.589
289.643
289.717
289.788
289.759
289.693
289.574
289.498
289.431
289.382
289.327
289.278
289.236
289.204
289.22
289.283
289.323
289.368
289.426
289.481
289.551
289.62
289.702
289.776
289.769
289.751
289.659
289.614
289.575
289.549
289.513
289.48
289.448
289.422
289.188
289.254
289.295
289.339
289.398
289.454
289.527
289.601
289.688
289.768
289.754
289.752
289.654
289.608
289.57
289.547
289.512
289.48
289.448
289.422
289.149
289.216
289.258
289.303
289.362
289.42
289.495
289.573
289.667
289.752
289.75
289.761
289.661
289.616
289.58
289.559
289.527
289.496
289.466
289.439
289.146
289.214
289.254
289.297
289.355
289.412
289.487
289.565
289.661
289.749
289.753
289.781
289.682
289.642
289.612
289.596
289.569
289.542
289.514
289.489
289.148
289.215
289.254
289.297
289.353
289.408
289.483
289.561
289.657
289.746
289.762
289.803
289.709
289.674
289.648
289.636
289.612
289.588
289.562
289.538
289.164
289.231
289.269
289.31
289.363
289.417
289.489
289.566
289.661
289.749
289.769
289.821
289.736
289.709
289.689
289.682
289.662
289.641
289.617
289.594
289.115
289.178
289.214
289.255
289.31
289.367
289.444
289.528
289.63
289.726
289.778
289.825
289.716
289.672
289.644
289.634
289.615
289.596
289.574
289.552
289.288
289.36
289.396
289.43
289.473
289.515
289.572
289.635
289.717
289.794
289.795
289.907
289.823
289.808
289.804
289.81
289.804
289.794
289.778
289.758
289.418
289.507
289.546
289.575
289.604
289.625
289.658
289.696
289.756
289.818
289.763
289.767
289.646
289.585
289.543
289.522
289.496
289.473
289.449
289.426
289.543
289.623
289.657
289.68
289.702
289.715
289.738
289.764
289.809
289.857
289.852
290.037
289.991
290.017
290.055
290.099
290.124
290.137
290.134
290.118
289.555
289.632
289.665
289.689
289.712
289.727
289.752
289.78
289.826
289.874
289.869
290.06
290.018
290.045
290.081
290.121
290.143
290.153
290.149
290.133
289.55
289.626
289.659
289.682
289.705
289.721
289.746
289.774
289.821
289.87
289.857
290.011
289.961
289.982
290.018
290.062
290.089
290.103
290.102
290.088
289.64
289.719
289.75
289.77
289.787
289.794
289.807
289.822
289.856
289.893
289.875
290.044
290.005
290.035
290.078
290.126
290.156
290.172
290.171
290.158
289.604
289.678
289.709
289.732
289.754
289.768
289.79
289.814
289.854
289.895
289.884
290.055
290.009
290.029
290.062
290.1
290.122
290.132
290.128
290.114
289.638
289.711
289.742
289.765
289.786
289.799
289.819
289.841
289.878
289.915
289.904
290.091
290.049
290.072
290.105
290.143
290.164
290.173
290.169
290.155
289.699
289.772
289.802
289.822
289.84
289.849
289.863
289.878
289.908
289.938
289.918
290.118
290.086
290.117
290.153
290.192
290.213
290.221
290.218
290.204
289.736
289.816
289.848
289.867
289.88
289.881
289.885
289.89
289.911
289.936
289.843
289.903
289.821
289.794
289.782
289.783
289.778
289.769
289.755
289.738
289.759
289.83
289.857
289.874
289.885
289.885
289.889
289.893
289.911
289.934
289.934
290.115
290.101
290.141
290.185
290.229
290.254
290.267
290.266
290.254
289.838
289.917
289.947
289.962
289.969
289.96
289.953
289.944
289.95
289.963
289.869
289.959
289.894
289.885
289.891
289.907
289.914
289.914
289.905
289.89
289.88
289.952
289.979
289.992
289.997
289.987
289.978
289.967
289.969
289.977
289.972
290.182
290.178
290.231
290.29
290.348
290.384
290.404
290.407
290.397
289.976
290.049
290.075
290.087
290.088
290.074
290.057
290.036
290.028
290.024
289.998
290.233
290.238
290.3
290.366
290.428
290.469
290.491
290.495
290.486
290.06
290.134
290.16
290.17
290.167
290.147
290.122
290.091
290.072
290.059
290.025
290.286
290.295
290.363
290.434
290.5
290.544
290.567
290.573
290.564
290.142
290.216
290.241
290.25
290.244
290.219
290.187
290.148
290.119
290.096
290.051
290.331
290.35
290.426
290.502
290.572
290.618
290.644
290.65
290.642
290.214
290.286
290.31
290.317
290.308
290.279
290.241
290.195
290.157
290.125
290.072
290.366
290.394
290.474
290.554
290.625
290.67
290.696
290.703
290.695
290.306
290.383
290.409
290.414
290.399
290.36
290.31
290.25
290.198
290.153
290.02
290.241
290.241
290.296
290.358
290.419
290.46
290.483
290.488
290.479
290.295
290.365
290.387
290.39
290.376
290.339
290.291
290.233
290.183
290.14
290.082
290.37
290.408
290.496
290.582
290.658
290.709
290.738
290.747
290.74
290.357
290.433
290.457
290.46
290.443
290.401
290.345
290.278
290.219
290.168
290.036
290.274
290.284
290.348
290.419
290.487
290.534
290.561
290.568
290.56
290.354
290.424
290.446
290.448
290.431
290.39
290.336
290.27
290.212
290.163
290.092
290.386
290.426
290.516
290.607
290.686
290.74
290.771
290.782
290.776
290.402
290.472
290.494
290.496
290.477
290.434
290.376
290.306
290.243
290.188
290.103
290.406
290.451
290.546
290.639
290.721
290.776
290.808
290.818
290.813
290.445
290.515
290.537
290.537
290.517
290.47
290.408
290.333
290.263
290.203
290.115
290.427
290.473
290.569
290.664
290.746
290.802
290.834
290.844
290.839
290.485
290.554
290.575
290.575
290.553
290.504
290.439
290.36
290.286
290.22
290.123
290.437
290.488
290.587
290.684
290.768
290.825
290.858
290.869
290.864
290.517
290.585
290.605
290.604
290.58
290.529
290.46
290.377
290.299
290.23
290.131
290.45
290.502
290.602
290.7
290.784
290.841
290.874
290.886
290.881
290.543
290.61
290.63
290.628
290.604
290.551
290.48
290.395
290.314
290.242
290.135
290.449
290.506
290.607
290.706
290.79
290.848
290.881
290.892
290.888
290.549
290.614
290.633
290.631
290.606
290.554
290.483
290.398
290.316
290.243
290.138
290.453
290.507
290.606
290.701
290.784
290.839
290.871
290.882
290.877
290.581
290.646
290.664
290.661
290.635
290.58
290.506
290.418
290.332
290.255
290.143
290.459
290.517
290.618
290.714
290.796
290.851
290.882
290.893
290.889
290.541
290.601
290.618
290.615
290.591
290.541
290.473
290.39
290.311
290.239
290.129
290.422
290.467
290.556
290.643
290.719
290.77
290.8
290.81
290.806
290.52
290.576
290.593
290.591
290.569
290.523
290.46
290.383
290.309
290.24
290.138
290.45
290.477
290.544
290.618
290.678
290.72
290.741
290.748
290.741
290.682
290.743
290.746
290.733
290.698
290.642
290.564
290.475
290.381
290.3
290.147
290.442
290.495
290.579
290.658
290.723
290.768
290.793
290.803
290.801
290.708
290.718
290.713
290.697
290.67
290.636
290.585
290.521
290.443
290.358
290.063
290.333
290.356
290.431
290.526
290.614
290.683
290.722
290.739
290.736
290.491
290.585
290.578
290.547
290.493
290.426
290.348
290.274
290.207
290.16
290.015
290.015
290.016
290.017
290.017
290.017
290.017
290.018
290.018
290.018
290.018
290.018
290.018
290.017
290.017
290.017
290.017
290.016
290.017
290.018
290.087
290.207
290.247
290.321
290.407
290.495
290.569
290.621
290.647
290.648
290.506
290.594
290.603
290.577
290.52
290.44
290.355
290.274
290.208
290.155
290.061
290.28
290.285
290.344
290.426
290.508
290.58
290.629
290.654
290.655
290.483
290.569
290.561
290.528
290.473
290.406
290.331
290.263
290.203
290.159
290.053
290.259
290.264
290.322
290.4
290.478
290.546
290.592
290.615
290.616
290.374
290.448
290.441
290.414
290.371
290.32
290.262
290.212
290.167
290.135
290.053
290.243
290.248
290.303
290.38
290.46
290.532
290.584
290.613
290.618
290.392
290.466
290.463
290.443
290.405
290.357
290.299
290.246
290.195
290.156
290.051
290.253
290.258
290.317
290.401
290.487
290.564
290.619
290.649
290.652
290.328
290.403
290.4
290.38
290.344
290.301
290.25
290.204
290.162
290.132
290.057
290.266
290.277
290.344
290.436
290.533
290.62
290.683
290.718
290.723
290.364
290.445
290.442
290.424
290.387
290.341
290.285
290.233
290.183
290.145
290.043
290.241
290.251
290.316
290.396
290.48
290.549
290.599
290.624
290.625
290.434
290.518
290.527
290.504
290.452
290.38
290.305
290.232
290.175
290.131
290.04
290.242
290.247
290.31
290.387
290.469
290.538
290.587
290.612
290.613
290.433
290.519
290.528
290.504
290.452
290.38
290.304
290.23
290.173
290.129
290.038
290.241
290.246
290.311
290.391
290.477
290.549
290.6
290.626
290.628
290.443
290.532
290.541
290.516
290.463
290.388
290.31
290.234
290.175
290.13
290.038
290.248
290.252
290.318
290.4
290.488
290.562
290.615
290.642
290.643
290.441
290.533
290.543
290.517
290.463
290.388
290.309
290.234
290.176
290.132
290.048
290.276
290.265
290.323
290.401
290.487
290.561
290.614
290.642
290.643
290.46
290.548
290.557
290.531
290.477
290.401
290.32
290.242
290.179
290.132
290.036
290.243
290.249
290.318
290.403
290.493
290.571
290.626
290.655
290.657
290.416
290.507
290.517
290.493
290.441
290.368
290.292
290.22
290.164
290.122
290.023
290.216
290.213
290.271
290.346
290.429
290.499
290.551
290.577
290.578
290.337
290.428
290.439
290.417
290.371
290.307
290.242
290.18
290.134
290.1
290.01
290.185
290.172
290.22
290.284
290.356
290.419
290.466
290.489
290.489
290.238
290.325
290.337
290.32
290.282
290.229
290.179
290.132
290.1
290.077
290.004
290.164
290.117
290.133
290.169
290.218
290.263
290.297
290.314
290.312
289.988
290.056
290.069
290.065
290.052
290.033
290.02
290.011
290.012
290.015
290.042
290.271
290.302
290.403
290.525
290.651
290.759
290.837
290.879
290.884
290.35
290.443
290.453
290.431
290.382
290.315
290.249
290.187
290.141
290.107
290.025
290.23
290.233
290.302
290.392
290.489
290.574
290.636
290.668
290.67
290.132
290.219
290.233
290.222
290.194
290.156
290.122
290.093
290.077
290.064
290.029
290.249
290.258
290.338
290.44
290.549
290.644
290.713
290.75
290.753
290.186
290.279
290.293
290.279
290.245
290.2
290.158
290.12
290.097
290.079
290.023
290.272
290.235
290.278
290.346
290.429
290.503
290.558
290.585
290.584
290.267
290.36
290.373
290.355
290.314
290.255
290.194
290.137
290.096
290.07
289.972
290.104
290.056
290.059
290.072
290.095
290.115
290.129
290.134
290.126
290.162
290.255
290.269
290.257
290.226
290.181
290.138
290.099
290.075
290.058
289.959
290.065
290.004
289.992
289.991
290.003
290.013
290.022
290.024
290.015
290.099
290.192
290.206
290.195
290.169
290.129
290.093
290.062
290.046
290.036
289.95
290.05
289.981
289.961
289.951
289.954
289.957
289.961
289.959
289.949
290.091
290.188
290.203
290.192
290.166
290.126
290.092
290.062
290.049
290.041
289.965
290.128
290.02
289.981
289.958
289.954
289.953
289.955
289.951
289.941
290.122
290.224
290.238
290.222
290.186
290.135
290.087
290.047
290.024
290.016
289.941
290.048
289.98
289.962
289.954
289.959
289.965
289.971
289.969
289.959
290.096
290.196
290.212
290.2
290.171
290.13
290.091
290.06
290.045
290.036
289.944
290.043
289.968
289.942
289.927
289.926
289.925
289.929
289.925
289.915
290.194
290.295
290.308
290.289
290.251
290.196
290.144
290.096
290.067
290.049
289.943
290.025
289.985
290.006
290.069
290.163
290.276
290.38
290.452
290.479
289.243
289.284
289.326
289.41
289.513
289.625
289.723
289.815
289.883
289.939
289.953
290.037
290.024
290.068
290.153
290.268
290.401
290.522
290.605
290.634
289.352
289.407
289.449
289.53
289.625
289.722
289.802
289.87
289.916
289.954
289.902
289.823
289.774
289.744
289.746
289.778
289.843
289.913
289.971
289.995
288.878
288.875
288.934
289.054
289.206
289.373
289.524
289.656
289.759
289.84
289.9
289.88
289.854
289.864
289.914
290.005
290.124
290.242
290.33
290.365
289.09
289.122
289.166
289.259
289.373
289.5
289.613
289.717
289.793
289.842
289.798
289.908
289.863
289.827
289.829
289.863
289.937
290.024
290.098
290.125
289.455
289.547
289.577
289.638
289.689
289.743
289.768
289.805
289.893
290.169
289.495
289.759
289.874
289.99
290.085
290.158
290.198
290.215
290.212
290.2
289.601
289.676
289.715
289.744
289.768
289.781
289.797
289.816
289.839
289.862
289.901
290.032
289.989
290.015
290.092
290.191
290.302
290.39
290.444
290.457
289.162
289.236
289.299
289.405
289.521
289.643
289.741
289.828
289.89
289.943
289.885
289.934
289.861
289.844
289.879
289.959
290.065
290.167
290.237
290.262
288.974
289.038
289.109
289.235
289.372
289.513
289.625
289.72
289.79
289.851
289.837
289.719
289.629
289.562
289.539
289.558
289.613
289.679
289.729
289.746
288.615
288.622
288.698
288.856
289.036
289.237
289.41
289.569
289.689
289.79
289.891
289.917
289.837
289.807
289.827
289.901
290.011
290.127
290.21
290.242
289.131
289.166
289.229
289.347
289.479
289.615
289.716
289.801
289.858
289.902
289.864
289.861
289.801
289.761
289.764
289.82
289.927
290.059
290.17
290.225
288.973
288.956
289.002
289.126
289.277
289.432
289.558
289.66
289.713
289.662
290.135
289.674
289.506
289.41
289.38
289.384
289.432
289.489
289.535
289.545
288.887
289.062
289.186
289.39
289.577
289.777
289.9
289.976
289.909
289.685
289.792
289.529
289.523
289.555
289.633
289.73
289.834
289.907
289.947
289.947
288.919
288.977
289.064
289.212
289.364
289.519
289.638
289.737
289.805
289.855
289.896
289.804
289.737
289.68
289.669
289.701
289.772
289.85
289.915
289.936
288.807
288.793
288.876
289.036
289.223
289.414
289.566
289.685
289.762
289.795
289.73
289.621
289.564
289.41
289.248
289.115
289.049
289.044
289.076
289.104
289.115
289.124
289.188
289.32
289.459
289.584
289.648
289.687
289.784
290.207
289.568
289.485
289.611
289.613
289.528
289.412
289.254
289.105
288.995
288.935
289.368
289.491
289.579
289.653
289.724
289.758
289.799
289.816
289.832
289.826
289.924
289.687
289.628
289.537
289.474
289.43
289.428
289.434
289.445
289.445
288.816
288.735
288.827
289.014
289.214
289.412
289.564
289.68
289.749
289.783
289.753
289.907
289.805
289.685
289.571
289.491
289.458
289.478
289.516
289.542
289.568
289.604
289.654
289.745
289.825
289.89
289.903
289.918
290.015
290.461
289.554
289.81
289.887
289.869
289.799
289.719
289.645
289.588
289.559
289.545
289.707
289.736
289.745
289.754
289.777
289.811
289.837
289.853
289.799
289.626
290.409
289.674
289.308
289.115
289.028
289.074
289.213
289.414
289.584
289.686
289.026
288.665
288.711
288.878
289.214
289.569
289.866
290.024
289.881
289.394
290.106
289.009
289.009
289.024
289.066
289.226
289.449
289.7
289.894
289.999
289.051
289.006
289.101
289.267
289.439
289.597
289.695
289.751
289.763
289.795
289.842
289.914
290.008
290.039
290.033
290.026
290.029
290.047
290.067
290.073
289.229
289.099
289.121
289.21
289.346
289.494
289.635
289.745
289.842
290.042
290.079
289.855
289.762
289.695
289.613
289.532
289.481
289.46
289.464
289.471
289.211
289.311
289.405
289.514
289.628
289.725
289.811
289.842
289.797
289.608
290.031
289.671
289.745
289.737
289.713
289.636
289.547
289.416
289.313
289.235
288.939
289.293
289.453
289.661
289.766
289.845
289.821
289.794
289.754
289.819
289.887
289.625
289.595
289.504
289.35
289.197
289.018
288.869
288.752
288.686
289.152
289.152
289.185
289.242
289.327
289.419
289.52
289.611
289.691
289.776
289.747
289.497
289.486
289.426
289.318
289.205
289.056
288.925
288.823
288.769
288.948
289.022
289.096
289.192
289.315
289.432
289.558
289.65
289.731
289.778
289.904
289.646
289.674
289.613
289.528
289.409
289.296
289.168
289.078
289.018
289.256
289.482
289.557
289.646
289.674
289.699
289.683
289.683
289.671
289.674
290.05
289.762
289.664
289.551
289.406
289.27
289.131
289.02
288.941
288.897
289.256
289.224
289.246
289.298
289.383
289.478
289.582
289.676
289.75
289.788
289.866
289.667
289.72
289.688
289.633
289.522
289.402
289.25
289.141
289.067
289.156
289.241
289.261
289.283
289.296
289.33
289.366
289.43
289.483
289.523
289.894
289.631
289.561
289.466
289.339
289.214
289.078
288.962
288.875
288.827
288.814
288.798
288.827
288.898
289.019
289.16
289.318
289.461
289.583
289.646
289.712
289.513
289.518
289.453
289.378
289.24
289.087
288.9
288.759
288.663
289.003
289.103
289.14
289.179
289.208
289.25
289.283
289.333
289.358
289.337
289.873
289.552
289.34
289.159
288.997
288.876
288.786
288.732
288.698
288.681
288.808
288.816
288.829
288.863
288.932
289.03
289.164
289.318
289.473
289.58
289.258
289.092
288.998
288.909
288.822
288.753
288.682
288.626
288.582
288.556
288.851
288.895
288.941
289.008
289.105
289.211
289.342
289.471
289.626
289.76
289.748
289.529
289.502
289.411
289.311
289.194
289.093
288.994
288.926
288.882
288.994
289.154
289.193
289.236
289.248
289.271
289.285
289.329
289.381
289.46
289.892
289.633
289.528
289.401
289.244
289.096
288.945
288.82
288.727
288.674
288.754
288.747
288.783
288.86
288.99
289.139
289.304
289.458
289.589
289.661
289.705
289.502
289.497
289.42
289.329
289.182
289.025
288.833
288.693
288.595
288.951
289.065
289.106
289.152
289.186
289.233
289.271
289.326
289.356
289.34
289.911
289.578
289.383
289.214
289.058
288.939
288.845
288.783
288.743
288.722
288.837
288.908
288.946
288.989
289.055
289.133
289.24
289.359
289.485
289.564
289.353
289.208
289.142
289.07
288.985
288.911
288.827
288.758
288.705
288.676
288.668
288.725
288.776
288.848
288.955
289.079
289.232
289.39
289.577
289.768
289.651
289.457
289.389
289.272
289.153
289.017
288.897
288.77
288.682
288.621
288.925
289.127
289.181
289.231
289.234
289.244
289.237
289.257
289.277
289.285
289.961
289.647
289.438
289.271
289.114
288.991
288.886
288.812
288.762
288.731
288.856
288.875
288.895
288.937
289.016
289.121
289.257
289.406
289.55
289.631
289.322
289.207
289.136
289.055
288.974
288.909
288.841
288.787
288.742
288.714
288.769
288.825
288.878
288.952
289.057
289.168
289.309
289.449
289.633
289.822
289.725
289.544
289.515
289.428
289.337
289.23
289.14
289.046
288.982
288.936
289.082
289.235
289.269
289.306
289.314
289.334
289.342
289.378
289.416
289.471
289.915
289.637
289.5
289.354
289.185
289.033
288.877
288.749
288.651
288.595
288.728
288.76
288.81
288.89
289.017
289.153
289.308
289.453
289.578
289.63
289.658
289.539
289.503
289.416
289.325
289.19
289.052
288.882
288.764
288.676
289.138
289.08
289.064
289.046
289.076
289.136
289.22
289.312
289.357
289.299
289.842
289.562
289.331
289.164
289.03
288.944
288.879
288.836
288.805
288.784
288.688
288.816
288.882
288.94
289.009
289.061
289.13
289.19
289.256
289.3
289.924
289.632
289.444
289.282
289.134
288.985
288.86
288.761
288.7
288.67
288.918
288.946
288.934
288.932
288.979
289.069
289.199
289.351
289.495
289.58
289.323
289.19
289.073
288.979
288.887
288.813
288.743
288.686
288.645
288.619
288.673
288.767
288.826
288.897
288.997
289.106
289.251
289.404
289.587
289.753
289.658
289.495
289.416
289.31
289.215
289.105
289.009
288.897
288.813
288.748
289.085
289.306
289.364
289.417
289.417
289.416
289.386
289.383
289.381
289.385
289.957
289.666
289.465
289.303
289.143
289.016
288.897
288.808
288.742
288.703
288.77
288.815
288.853
288.911
289.006
289.117
289.256
289.399
289.535
289.608
289.339
289.252
289.178
289.102
289.007
288.924
288.837
288.767
288.714
288.684
288.601
288.692
288.762
288.851
288.971
289.096
289.251
289.406
289.596
289.772
289.667
289.504
289.464
289.382
289.307
289.211
289.123
289.012
288.931
288.866
289.126
289.338
289.396
289.451
289.452
289.449
289.413
289.399
289.383
289.375
289.957
289.63
289.422
289.245
289.064
288.914
288.767
288.65
288.563
288.514
288.668
288.778
288.846
288.924
289.024
289.125
289.251
289.374
289.488
289.519
289.198
289.184
289.102
289.011
288.887
288.763
288.629
288.521
288.443
288.401
288.606
288.686
288.739
288.808
288.905
289.021
289.171
289.334
289.545
289.742
289.312
289.093
289.021
288.906
288.807
288.701
288.62
288.521
288.458
288.408
288.93
289.068
289.125
289.201
289.267
289.34
289.395
289.479
289.571
289.708
289.714
289.627
289.565
289.47
289.375
289.255
289.147
289.029
288.946
288.886
289.37
289.562
289.606
289.634
289.606
289.571
289.516
289.488
289.464
289.427
290.074
289.787
289.58
289.431
289.293
289.187
289.087
289.011
288.955
288.92
288.899
288.976
289.023
289.081
289.164
289.252
289.366
289.476
289.582
289.605
289.4
289.451
289.365
289.283
289.203
289.132
289.09
289.069
289.064
289.062
289.024
289.111
289.162
289.218
289.288
289.363
289.467
289.592
289.778
289.95
289.382
289.227
289.184
289.093
289.002
288.896
288.805
288.696
288.625
288.57
288.993
289.139
289.205
289.289
289.359
289.432
289.481
289.553
289.634
289.774
289.747
289.73
289.666
289.584
289.5
289.404
289.322
289.239
289.18
289.139
289.536
289.673
289.698
289.708
289.678
289.642
289.596
289.573
289.552
289.501
290.112
289.855
289.639
289.481
289.333
289.216
289.113
289.038
288.986
288.959
289.267
289.385
289.429
289.463
289.5
289.535
289.592
289.653
289.713
289.692
289.404
289.491
289.359
289.236
289.127
289.034
289
288.999
289.022
289.042
289.461
289.447
289.427
289.418
289.43
289.482
289.564
289.685
289.85
290.006
289.526
289.468
289.423
289.367
289.318
289.265
289.222
289.163
289.12
289.082
289.28
289.409
289.458
289.515
289.56
289.606
289.635
289.688
289.738
289.809
289.792
289.777
289.726
289.668
289.617
289.554
289.499
289.435
289.387
289.347
289.631
289.776
289.805
289.819
289.786
289.744
289.684
289.648
289.62
289.593
290.073
289.851
289.672
289.549
289.439
289.357
289.273
289.204
289.148
289.113
289.186
289.242
289.259
289.273
289.305
289.343
289.4
289.454
289.506
289.521
290.002
289.799
289.703
289.608
289.514
289.393
289.281
289.169
289.099
289.056
289.322
289.355
289.345
289.346
289.37
289.417
289.487
289.569
289.642
289.661
289.521
289.492
289.467
289.444
289.397
289.344
289.273
289.211
289.16
289.13
288.862
288.925
288.978
289.053
289.156
289.272
289.412
289.555
289.727
289.88
289.707
289.651
289.647
289.618
289.6
289.556
289.507
289.418
289.348
289.285
289.66
289.787
289.827
289.859
289.859
289.847
289.799
289.753
289.682
289.604
290.053
289.824
289.684
289.598
289.518
289.457
289.371
289.287
289.212
289.163
289.196