/*--------------------------------*- C++ -*----------------------------------*\
| =========                 |                                                 |
| \\      /  F ield         | OpenFOAM: The Open Source CFD Toolbox           |
|  \\    /   O peration     | Version:  v2006                                 |
|   \\  /    A nd           | Website:  www.openfoam.com                      |
|    \\/     M anipulation  |                                                 |
\*---------------------------------------------------------------------------*/
FoamFile
{
    version     2.0;
    format      ascii;
    class       volVectorField;
    location    "0.05";
    object      U;
}
// * * * * * * * * * * * * * * * * * * * * * * * * * * * * * * * * * * * * * //

dimensions      [0 1 -1 0 0 0 0];


internalField   nonuniform List<vector> 
38348
(
(0.0457923 9.83206e-05 -9.20475e-15)
(0.045872 3.0224e-05 1.20033e-15)
(0.0307092 -1.8713e-05 -1.29716e-15)
(0.0306773 0.000462577 0)
(0.0309689 0.000307931 5.84948e-16)
(0.0308241 -1.21227e-05 -5.10022e-16)
(0.0308565 -6.5092e-05 4.93195e-16)
(0.0307478 -0.000331262 -2.3106e-16)
(0.0307668 -0.000269478 0)
(0.0307565 -0.000359089 2.83288e-17)
(0.0307657 -0.000356307 -2.12261e-17)
(0.0307661 -0.000403154 6.49753e-26)
(0.030766 -0.00044687 -3.53673e-18)
(0.0307653 -0.000491194 1.76839e-18)
(0.0307648 -0.000535635 1.76832e-18)
(0.0307642 -0.000580869 -1.76823e-18)
(0.030763 -0.000625793 0)
(0.0307623 -0.000670711 0)
(0.0307609 -0.000715422 0)
(0.03076 -0.000760049 1.76805e-18)
(0.0307584 -0.000804434 -1.76808e-18)
(0.0307572 -0.000848451 0)
(0.0307557 -0.000892674 0)
(0.0307541 -0.000936659 0)
(0.0307524 -0.00098031 0)
(0.0307506 -0.00102368 0)
(0.0307488 -0.00106696 2.20973e-19)
(0.0307469 -0.00110998 0)
(0.0307449 -0.00115285 0)
(0.0307428 -0.00119552 0)
(0.0307405 -0.00123796 0)
(0.0307382 -0.00128016 0)
(0.0307358 -0.00132205 0)
(0.0307333 -0.00136369 0)
(0.0307307 -0.00140494 0)
(0.0307281 -0.00144586 0)
(0.0307253 -0.00148644 0)
(0.0307225 -0.00152667 0)
(0.0307195 -0.00156656 0)
(0.0307165 -0.00160612 0)
(0.0307134 -0.00164536 0)
(0.0307102 -0.00168427 0)
(0.0307069 -0.00172287 0)
(0.0307036 -0.00176111 0)
(0.0307002 -0.001799 0)
(0.0306967 -0.00183653 0)
(0.0306931 -0.00187371 0)
(0.0306894 -0.00191064 0)
(0.0306857 -0.00194735 0)
(0.0306819 -0.00198377 0)
(0.0306779 -0.00201984 0)
(0.0306739 -0.00205559 0)
(0.0306699 -0.00209102 0)
(0.0306657 -0.00212604 0)
(0.0306615 -0.0021605 0)
(0.0306571 -0.00219427 0)
(0.0306527 -0.00222735 0)
(0.0306483 -0.00225982 0)
(0.0306438 -0.00229178 0)
(0.0306392 -0.00232325 0)
(0.0306345 -0.0023542 0)
(0.0306298 -0.00238462 0)
(0.030625 -0.00241449 0)
(0.0306201 -0.00244379 0)
(0.0306152 -0.00247249 0)
(0.0306102 -0.00250058 0)
(0.0306051 -0.00252802 0)
(0.0305999 -0.00255482 0)
(0.0305947 -0.00258093 0)
(0.0305895 -0.00260635 0)
(0.0305841 -0.00263105 0)
(0.0305788 -0.00265501 0)
(0.0305733 -0.00267822 0)
(0.0305678 -0.00270066 0)
(0.0305623 -0.00272231 0)
(0.0305567 -0.00274317 0)
(0.030551 -0.0027632 0)
(0.0305453 -0.00278241 0)
(0.0305396 -0.00280078 0)
(0.0305338 -0.0028183 0)
(0.0305279 -0.00283494 0)
(0.030522 -0.00285066 0)
(0.0305161 -0.00286545 0)
(0.0305101 -0.00287933 0)
(0.0305042 -0.00289229 0)
(0.0304981 -0.00290429 0)
(0.0304921 -0.00291535 0)
(0.030486 -0.00292542 0)
(0.0304798 -0.00293448 0)
(0.0304737 -0.00294252 0)
(0.0304675 -0.00294954 0)
(0.0304613 -0.00295551 0)
(0.0304551 -0.00296043 0)
(0.0304488 -0.00296426 0)
(0.0304426 -0.00296702 0)
(0.0304363 -0.00296867 0)
(0.03043 -0.0029692 0)
(0.0304237 -0.0029686 0)
(0.0304174 -0.00296686 0)
(0.0304111 -0.00296396 0)
(0.0304048 -0.00295988 0)
(0.0303985 -0.00295461 0)
(0.0303922 -0.00294814 0)
(0.0303859 -0.00294047 0)
(0.0303796 -0.00293156 0)
(0.0303733 -0.00292142 0)
(0.030367 -0.00291003 0)
(0.0303607 -0.00289739 0)
(0.0303545 -0.00288348 0)
(0.0303483 -0.0028683 0)
(0.0303421 -0.00285185 0)
(0.0303359 -0.00283412 0)
(0.0303297 -0.0028151 0)
(0.0303236 -0.00279473 0)
(0.0303175 -0.002773 0)
(0.0303115 -0.00274995 0)
(0.0303055 -0.00272561 0)
(0.0302995 -0.00269995 0)
(0.0302936 -0.00267297 0)
(0.0302877 -0.00264465 0)
(0.0302819 -0.00261499 0)
(0.0302762 -0.00258398 0)
(0.0302705 -0.00255163 0)
(0.0302648 -0.00251794 0)
(0.0302593 -0.00248292 0)
(0.0302538 -0.00244657 0)
(0.0302484 -0.0024089 0)
(0.030243 -0.00236992 0)
(0.0302378 -0.00232964 0)
(0.0302326 -0.00228807 0)
(0.0302275 -0.00224524 0)
(0.0302225 -0.00220115 0)
(0.0302177 -0.00215585 0)
(0.0302129 -0.00210936 0)
(0.0302082 -0.00206169 2.20879e-19)
(0.0302037 -0.00201297 -2.20885e-19)
(0.0301993 -0.00196315 0)
(0.030195 -0.00191235 0)
(0.0301908 -0.00186063 0)
(0.0301868 -0.00180809 0)
(0.030183 -0.00175484 0)
(0.0301793 -0.00170102 0)
(0.0301758 -0.00164679 0)
(0.0301726 -0.00159235 0)
(0.0301695 -0.00153795 0)
(0.0301667 -0.00148386 0)
(0.0301641 -0.0014304 0)
(0.0301619 -0.00137807 0)
(0.03016 -0.00132746 0)
(0.0301585 -0.0012793 0)
(0.0301576 -0.0012345 0)
(0.0301573 -0.00119429 0)
(0.0301579 -0.00116037 0)
(0.0301598 -0.00113516 0)
(0.0301637 -0.00112261 -1.76799e-18)
(0.0301695 -0.0011262 7.07362e-18)
(0.030169 -0.00111941 -2.4072e-16)
(0.0302103 -0.00125898 3.43853e-16)
(0.0302452 -0.00130862 3.4638e-16)
(0.0304827 -0.00187645 -1.23177e-16)
(0.0307261 -0.00259309 2.03642e-15)
(0.0317391 -0.00431095 2.33066e-15)
(0.0332506 -0.00773647 -5.97178e-15)
(0.0357861 -0.0105688 5.53639e-15)
(0.0353275 -0.0111672 0)
(0.0330717 -0.0112761 0)
(0.0289679 -0.0107924 0)
(0.023625 -0.00972983 -1.73615e-15)
(0.0180015 -0.00822686 5.44544e-17)
(0.0129147 -0.0064544 -2.14066e-24)
(0.00865326 -0.00460587 1.57614e-15)
(0.00503641 -0.00270901 -3.67246e-16)
(0.00178384 -0.000881638 2.37715e-16)
(0.00370059 -2.26004e-05 -8.48401e-16)
(0.0101918 -1.36005e-05 1.41038e-15)
(0.0164563 -2.17352e-05 -2.99982e-15)
(0.0227446 3.14191e-05 1.96913e-16)
(0.0293856 3.73065e-05 9.58734e-15)
(0.0363436 1.34859e-05 -6.62773e-15)
(0.0430164 -9.22133e-05 0)
(0.0483154 -0.000317562 1.22252e-14)
(0.051393 -0.000670543 -1.12559e-14)
(0.0522405 -0.00118312 1.33762e-15)
(0.0477879 -0.00113247 -1.2008e-15)
(0.045863 -0.00086495 0)
(0.0417763 -0.00062932 4.69444e-17)
(0.0358161 -0.00044409 0)
(0.0289731 -0.000298627 -2.59133e-17)
(0.0223528 -0.000176938 1.00682e-15)
(0.0165141 -8.79247e-05 -9.95838e-16)
(0.011469 -3.23848e-05 9.30537e-17)
(0.00687872 8.95805e-06 -2.53772e-16)
(0.00243217 9.82564e-06 1.04993e-16)
(0.00255252 -1.22912e-05 2.82366e-18)
(0.00714024 -2.34942e-05 0)
(0.0117803 -5.33519e-05 0)
(0.0167909 -4.94147e-05 0)
(0.0224934 -4.76432e-05 2.20305e-17)
(0.0288988 -3.48734e-05 -1.56024e-16)
(0.035493 -3.62439e-05 1.74098e-16)
(0.0412222 -7.53052e-05 1.23851e-16)
(0.0451388 -0.000146645 3.96231e-26)
(0.0470367 -0.000257244 -2.172e-16)
(0.0463235 -0.000121497 -2.86591e-16)
(0.044365 -3.28484e-05 0)
(0.0404393 3.62326e-05 3.33451e-16)
(0.0347521 9.354e-05 -3.54444e-16)
(0.0282486 0.000126276 0)
(0.0219559 0.0001289 9.06052e-17)
(0.0163892 0.00012853 -4.35136e-17)
(0.0115092 0.000110263 0)
(0.0069831 6.97199e-05 -1.84018e-17)
(0.00249819 2.39015e-05 0)
(0.00247062 2.21254e-05 0)
(0.00687779 1.13765e-05 1.51364e-16)
(0.0113064 -2.57142e-05 -1.48792e-16)
(0.0160673 -5.30404e-05 4.00876e-17)
(0.0215005 -6.56258e-05 -4.19445e-16)
(0.0276736 -9.29517e-05 3.39762e-16)
(0.0340897 -0.000110758 0)
(0.0397459 -0.000125295 -6.11256e-16)
(0.0436826 -0.000147297 5.81966e-16)
(0.0456533 -0.000168371 2.77066e-16)
(0.0450536 7.01324e-05 -5.60943e-16)
(0.0430889 0.000134603 0)
(0.0391849 0.000169644 -2.01115e-17)
(0.0335935 0.000181121 -3.40128e-16)
(0.0272631 0.000171587 3.48335e-16)
(0.0211875 0.000144949 -4.30807e-17)
(0.0158386 0.000105012 2.0621e-17)
(0.0111555 7.66965e-05 -1.91714e-17)
(0.00679793 5.46047e-05 0)
(0.00244793 2.07172e-05 0)
(0.0023835 -6.61236e-07 0)
(0.00661367 -2.40926e-05 0)
(0.0108682 -5.44649e-05 1.88526e-17)
(0.0154756 -4.9421e-05 -2.03033e-17)
(0.0207608 -6.21817e-05 2.09754e-16)
(0.0267901 -5.67645e-05 -1.71827e-16)
(0.0330872 -3.95799e-05 0)
(0.0386522 -4.21124e-05 -1.4939e-16)
(0.0425433 -4.50086e-05 1.55877e-16)
(0.0445093 -6.37744e-05 2.79468e-16)
(0.0440987 1.53421e-05 -1.76094e-17)
(0.0421304 6.20868e-05 -2.77919e-17)
(0.0382662 9.75228e-05 -6.7363e-25)
(0.0327422 0.000117818 0)
(0.0265021 0.000127053 5.43351e-18)
(0.020534 0.000124984 -2.69082e-18)
(0.0153138 0.000112298 0)
(0.010752 9.09182e-05 0)
(0.00654075 5.73499e-05 2.15908e-18)
(0.00236027 1.91274e-05 -3.44257e-19)
(0.00235594 8.20192e-06 3.44602e-19)
(0.00651501 -7.90734e-06 -2.16006e-18)
(0.0106901 -4.35163e-05 5.9664e-19)
(0.0152016 -8.72467e-05 0)
(0.0203625 -0.000109334 5.37813e-18)
(0.0262684 -0.000132805 -5.42899e-18)
(0.0324516 -0.000148562 0)
(0.0379352 -0.000157871 -1.25804e-17)
(0.041779 -0.000161592 1.39077e-17)
(0.0437266 -0.000161405 1.76089e-17)
(0.0434354 1.78992e-06 1.41399e-16)
(0.0415051 3.55721e-05 -1.44109e-16)
(0.0377111 5.5233e-05 2.52653e-18)
(0.0322851 7.27456e-05 0)
(0.0261591 8.11955e-05 0)
(0.0203031 8.21013e-05 0)
(0.015179 7.53575e-05 0)
(0.0106895 6.28069e-05 -1.19779e-18)
(0.00652167 4.03103e-05 0)
(0.00236006 1.31346e-05 0)
(0.00232871 7.38217e-06 0)
(0.0064322 -3.40896e-06 0)
(0.0105429 -2.73667e-05 5.98865e-19)
(0.014979 -6.08057e-05 0)
(0.0200544 -7.64907e-05 0)
(0.0258683 -9.30874e-05 0)
(0.0319603 -0.000104281 0)
(0.0373637 -0.00010934 0)
(0.0411521 -0.000111421 0)
(0.0430634 -0.00011122 0)
(0.0427506 2.37073e-06 0)
(0.0408403 3.58638e-05 0)
(0.0370853 5.8121e-05 0)
(0.031722 7.52835e-05 0)
(0.0256769 8.62163e-05 0)
(0.0199102 8.94726e-05 0)
(0.0148761 8.34287e-05 0)
(0.0104735 7.10514e-05 0)
(0.00639073 4.49623e-05 0)
(0.0023136 1.46804e-05 0)
(0.00227991 9.91664e-06 0)
(0.00629348 1.4686e-06 0)
(0.0103133 -2.0032e-05 0)
(0.0146565 -5.39714e-05 0)
(0.0196376 -6.85123e-05 0)
(0.0253596 -8.59387e-05 0)
(0.0313717 -9.74118e-05 0)
(0.036718 -0.000103818 0)
(0.0404756 -0.000107242 0)
(0.0423763 -0.000108958 0)
(0.0421158 -7.36226e-05 0)
(0.0402173 -5.79867e-05 0)
(0.0365085 -5.09715e-05 0)
(0.0312197 -4.29961e-05 0)
(0.0252664 -2.92416e-05 0)
(0.0195965 -1.34816e-05 0)
(0.0146508 -2.36834e-07 0)
(0.0103265 1.11497e-05 0)
(0.00630933 6.68936e-06 0)
(0.00228783 -1.54925e-07 0)
(0.00226395 9.59827e-06 0)
(0.00624341 1.53382e-05 0)
(0.0102198 1.99647e-05 0)
(0.014504 1.02245e-05 0)
(0.0194086 3.78012e-06 0)
(0.0250368 -8.24368e-06 0)
(0.0309496 -2.17786e-05 0)
(0.0362053 -3.59583e-05 0)
(0.039899 -5.19489e-05 0)
(0.0417665 -7.08061e-05 0)
(0.0414689 -0.000111352 0)
(0.0395942 -9.42929e-05 0)
(0.0359303 -8.31923e-05 0)
(0.0307113 -6.99572e-05 0)
(0.0248404 -4.99754e-05 0)
(0.0192543 -2.87597e-05 0)
(0.0143881 -1.06173e-05 0)
(0.0101388 4.65261e-06 0)
(0.00619493 3.20618e-06 0)
(0.00224694 -1.13498e-06 0)
(0.00223422 1.31683e-05 0)
(0.00615838 2.09213e-05 0)
(0.0100758 2.79831e-05 0)
(0.0142938 1.2094e-05 0)
(0.0191229 -5.90884e-07 0)
(0.0246667 -2.23363e-05 0)
(0.030494 -4.7025e-05 0)
(0.0356753 -6.94033e-05 0)
(0.0393171 -8.97004e-05 0)
(0.0411574 -0.000108188 0)
(0.0408902 -0.00016309 0)
(0.0390356 -0.000147591 0)
(0.0354176 -0.000132712 0)
(0.0302681 -0.000108579 0)
(0.0244816 -7.34875e-05 0)
(0.0189818 -3.77808e-05 0)
(0.0141928 -9.7714e-06 0)
(0.0100091 1.17518e-05 0)
(0.00612066 7.21646e-06 0)
(0.00222176 -8.01291e-07 0)
(0.00222578 1.7636e-05 0)
(0.00612146 2.72515e-05 0)
(0.00999413 3.44695e-05 0)
(0.0141484 1.11088e-05 0)
(0.0188969 -7.73019e-06 0)
(0.0243499 -3.80913e-05 0)
(0.0300903 -7.0116e-05 0)
(0.0352041 -9.68118e-05 0)
(0.0388056 -0.000117015 0)
(0.0406258 -0.000132012 0)
(0.0402868 -2.95689e-05 0)
(0.038459 2.08759e-06 0)
(0.0348885 1.67306e-05 0)
(0.0298113 1.98102e-05 0)
(0.0241106 1.85624e-05 0)
(0.0186969 1.57384e-05 0)
(0.0139886 1.35028e-05 0)
(0.00987608 1.30017e-05 0)
(0.00604724 8.08926e-06 0)
(0.00219845 1.43007e-06 0)
(0.00216987 7.36225e-06 0)
(0.00597566 9.53e-06 0)
(0.00976738 1.03874e-05 0)
(0.0138447 -2.85798e-06 0)
(0.0185151 -1.29441e-05 0)
(0.0238858 -2.74605e-05 0)
(0.0295411 -4.29048e-05 0)
(0.0345776 -5.81979e-05 0)
(0.0381231 -7.48704e-05 0)
(0.0399188 -9.37859e-05 0)
(0.0396086 -0.000102537 0)
(0.0378093 -7.36493e-05 0)
(0.0342929 -5.56625e-05 0)
(0.0292925 -4.0858e-05 0)
(0.0236777 -2.46874e-05 0)
(0.0183478 -9.95997e-06 0)
(0.0137155 1.32238e-06 0)
(0.00967444 1.0058e-05 0)
(0.00591878 6.06748e-06 0)
(0.00214967 3.51913e-07 0)
(0.00214128 8.4783e-06 0)
(0.00589146 7.55388e-06 0)
(0.00962443 8.89442e-06 0)
(0.0136387 -1.72875e-05 0)
(0.0182389 -4.17634e-05 0)
(0.0235315 -7.58197e-05 0)
(0.0291069 -0.00011117 0)
(0.0340725 -0.000141867 0)
(0.0375673 -0.000165729 0)
(0.0393343 -0.000182768 0)
(0.0390027 -3.48307e-05 0)
(0.0372171 -3.47981e-06 0)
(0.0337376 1.4833e-05 0)
(0.0287964 2.81097e-05 0)
(0.0232614 3.74628e-05 0)
(0.0180174 4.28958e-05 0)
(0.0134692 4.04629e-05 0)
(0.0095043 3.74057e-05 0)
(0.00581867 2.04163e-05 0)
(0.00211539 4.44843e-06 0)
(0.00208891 3.35784e-06 0)
(0.00574811 -3.77177e-06 0)
(0.00939107 -5.8932e-06 0)
(0.0133113 -3.59421e-05 0)
(0.0178116 -5.92454e-05 0)
(0.0230019 -9.08586e-05 0)
(0.0284821 -0.000119136 0)
(0.0333789 -0.000142946 0)
(0.0368386 -0.000162578 0)
(0.0386015 -0.000178535 0)
(0.038354 -0.000174496 0)
(0.0366041 -0.00014939 0)
(0.0331878 -0.000126424 0)
(0.0283388 -0.000101281 0)
(0.0229025 -7.12371e-05 0)
(0.0177498 -4.20546e-05 0)
(0.0132758 -1.83686e-05 0)
(0.00937313 5.08226e-07 0)
(0.00574077 1.00969e-06 0)
(0.00208796 -1.85093e-06 0)
(0.00206893 1.30637e-05 0)
(0.00568905 1.87543e-05 0)
(0.00928699 2.04097e-05 0)
(0.0131501 1.17624e-06 0)
(0.0175776 -1.3829e-05 0)
(0.0226793 -3.68501e-05 0)
(0.0280663 -6.21216e-05 0)
(0.0328781 -8.64224e-05 0)
(0.0362764 -0.000110331 0)
(0.0380022 -0.000134794 0)
(0.0376448 -0.000193215 0)
(0.035916 -0.000159085 0)
(0.0325438 -0.000129741 0)
(0.0277718 -0.000101569 0)
(0.0224315 -7.16167e-05 0)
(0.0173771 -4.35506e-05 0)
(0.0129937 -2.08365e-05 0)
(0.00917276 -2.62092e-06 0)
(0.00561747 -9.4799e-07 0)
(0.00204252 -2.18804e-06 0)
(0.00203054 5.70667e-06 0)
(0.00558257 8.91315e-07 0)
(0.00911247 -4.16943e-07 0)
(0.0129041 -2.81368e-05 0)
(0.0172525 -5.47003e-05 0)
(0.0222642 -9.15728e-05 0)
(0.0275559 -0.000130982 0)
(0.0322814 -0.000167994 0)
(0.0356211 -0.000201621 0)
(0.0373222 -0.000232531 0)
(0.0370454 -0.00027301 0)
(0.0353649 -0.00024145 0)
(0.0320663 -0.000207863 0)
(0.0273909 -0.000168774 0)
(0.0221467 -0.000124795 0)
(0.0171739 -8.26558e-05 0)
(0.0128545 -4.78738e-05 0)
(0.00908342 -1.98453e-05 0)
(0.00556799 -1.13285e-05 0)
(0.00202649 -5.76043e-06 0)
(0.00201638 7.10999e-06 0)
(0.0055394 3.77144e-06 0)
(0.00903283 1.38704e-06 0)
(0.0127753 -2.58722e-05 0)
(0.0170574 -5.15753e-05 0)
(0.0219849 -8.74235e-05 0)
(0.0271799 -0.000125837 0)
(0.0318111 -0.000161595 0)
(0.0350757 -0.000193225 0)
(0.0367316 -0.000221845 0)
(0.0364066 -0.000243179 0)
(0.0347635 -0.000210245 0)
(0.0315335 -0.000178834 0)
(0.0269485 -0.000143431 0)
(0.0218036 -0.000104372 0)
(0.0169227 -6.75115e-05 0)
(0.0126789 -3.73745e-05 0)
(0.00896718 -1.31597e-05 0)
(0.00549988 -7.14554e-06 0)
(0.00200211 -4.25388e-06 0)
(0.00198157 9.58671e-06 0)
(0.00544383 1.10841e-05 0)
(0.00887523 1.17168e-05 0)
(0.0125472 -1.03506e-05 0)
(0.0167449 -3.07403e-05 0)
(0.021574 -6.06232e-05 0)
(0.0266674 -9.39487e-05 0)
(0.0312111 -0.000126875 0)
(0.0344154 -0.000158966 0)
(0.0360387 -0.000191371 0)
(0.0356464 -0.000229139 0)
(0.0340266 -0.000189201 0)
(0.0308478 -0.000155395 0)
(0.0263461 -0.000120731 0)
(0.0213034 -8.51758e-05 0)
(0.016526 -5.29136e-05 0)
(0.0123764 -2.71841e-05 0)
(0.00875045 -6.91696e-06 0)
(0.00536567 -3.68419e-06 0)
(0.00195291 -2.98352e-06 0)
(0.00193167 3.01699e-06 0)
(0.00530708 -2.66043e-06 0)
(0.00865458 -2.34847e-08 0)
(0.0122412 -2.47102e-05 0)
(0.0163465 -5.06594e-05 0)
(0.0210737 -8.78638e-05 0)
(0.0260633 -0.000129372 0)
(0.0305185 -0.000170858 0)
(0.0336667 -0.000211523 0)
(0.0352679 -0.000252689 0)
(0.034909 -0.000298264 0)
(0.033331 -0.000256756 0)
(0.0302176 -0.000217418 0)
(0.0258133 -0.000171832 0)
(0.0208763 -0.000124721 0)
(0.0161957 -8.18846e-05 0)
(0.012129 -4.75917e-05 0)
(0.00857545 -2.07159e-05 0)
(0.00525863 -1.2594e-05 0)
(0.00191417 -6.09954e-06 0)
(0.00190029 -3.57154e-06 0)
(0.00522051 -1.68007e-05 0)
(0.00851118 -1.37481e-05 0)
(0.012034 -4.19352e-05 0)
(0.0160628 -7.44666e-05 0)
(0.0206964 -0.000120029 0)
(0.0255796 -0.000170508 0)
(0.0299317 -0.000220133 0)
(0.0330021 -0.000266008 0)
(0.0345626 -0.000307772 0)
(0.0342263 -0.000327102 0)
(0.0326987 -0.000286146 0)
(0.0296654 -0.000245467 0)
(0.0253648 -0.000194909 0)
(0.0205335 -0.000142246 0)
(0.0159445 -9.4385e-05 0)
(0.0119504 -5.61102e-05 0)
(0.0084544 -2.64081e-05 0)
(0.00518632 -1.60993e-05 0)
(0.00188809 -7.17055e-06 0)
(0.00186591 1.09494e-06 0)
(0.00512666 -5.79768e-06 0)
(0.00835742 -3.44482e-06 0)
(0.0118129 -2.72928e-05 0)
(0.01576 -5.38583e-05 0)
(0.020296 -9.19729e-05 0)
(0.0250733 -0.000135391 0)
(0.0293283 -0.000179766 0)
(0.0323258 -0.000223287 0)
(0.0338447 -0.000266993 0)
(0.0334197 -0.000299577 0)
(0.0319189 -0.000252933 0)
(0.0289486 -0.000211203 0)
(0.0247417 -0.00016432 0)
(0.0200209 -0.000117774 0)
(0.0155404 -7.65034e-05 0)
(0.0116429 -4.39087e-05 0)
(0.00823333 -1.87633e-05 0)
(0.00504847 -1.13412e-05 0)
(0.00183692 -5.43117e-06 0)
(0.00181703 -5.2474e-06 0)
(0.00499459 -1.92934e-05 0)
(0.00814532 -1.39615e-05 0)
(0.0115176 -4.06891e-05 0)
(0.0153709 -7.30029e-05 0)
(0.0197983 -0.000118703 0)
(0.0244602 -0.000169925 0)
(0.0286121 -0.000221349 0)
(0.0315392 -0.000270629 0)
(0.033025 -0.000318392 0)
(0.0326447 -0.000336509 0)
(0.0311941 -0.000291155 0)
(0.0283065 -0.000248172 0)
(0.0242116 -0.000195129 0)
(0.0196086 -0.000141083 0)
(0.015232 -9.26618e-05 0)
(0.0114183 -5.4384e-05 0)
(0.00807691 -2.51564e-05 0)
(0.00495278 -1.56493e-05 0)
(0.00180182 -7.05379e-06 0)
(0.00177706 -8.80332e-07 0)
(0.00488665 -9.1096e-06 0)
(0.00797022 -4.48946e-06 0)
(0.011268 -2.7588e-05 0)
(0.015031 -5.47546e-05 0)
(0.0193495 -9.41318e-05 0)
(0.0238922 -0.000139549 0)
(0.027935 -0.000186838 0)
(0.0307817 -0.000234378 0)
(0.0322235 -0.000283679 0)
(0.0317603 -0.000313125 0)
(0.0303402 -0.000262224 0)
(0.0275233 -0.000217968 0)
(0.0235332 -0.000167808 0)
(0.019052 -0.000119059 0)
(0.0147936 -7.65645e-05 0)
(0.011084 -4.34723e-05 0)
(0.00783563 -1.84281e-05 0)
(0.00480155 -1.1406e-05 0)
(0.00174535 -5.46506e-06 0)
(0.00172229 -6.89811e-06 0)
(0.00473986 -2.18453e-05 0)
(0.00773607 -1.41547e-05 0)
(0.0109437 -3.97486e-05 0)
(0.0146049 -7.20663e-05 0)
(0.018805 -0.000118355 0)
(0.0232214 -0.000170965 0)
(0.0271512 -0.000224827 0)
(0.0299207 -0.000277695 0)
(0.0313263 -0.00033039 0)
(0.0309014 -0.000344438 0)
(0.0295341 -0.000294807 0)
(0.0268079 -0.000249718 0)
(0.0229414 -0.000194499 0)
(0.0185908 -0.000139388 0)
(0.0144476 -9.07456e-05 0)
(0.0108304 -5.27142e-05 0)
(0.00765703 -2.4026e-05 0)
(0.00469075 -1.52338e-05 0)
(0.00170401 -6.97295e-06 0)
(0.00167626 -1.34468e-06 0)
(0.00461734 -9.41625e-06 0)
(0.00753947 -2.88701e-06 0)
(0.0106654 -2.50706e-05 0)
(0.0142272 -5.20074e-05 0)
(0.018306 -9.17579e-05 0)
(0.0225888 -0.000138374 0)
(0.0263965 -0.000187947 0)
(0.0290769 -0.000239057 0)
(0.0304346 -0.000293255 0)
(0.029924 -0.000317318 0)
(0.0285896 -0.00026159 0)
(0.0259425 -0.000215018 0)
(0.0221931 -0.000163041 0)
(0.0179786 -0.000113709 0)
(0.0139664 -7.15715e-05 0)
(0.0104636 -3.93402e-05 0)
(0.0073917 -1.53856e-05 0)
(0.00452363 -9.72594e-06 0)
(0.00164114 -4.97396e-06 0)
(0.00161359 -6.55119e-06 0)
(0.00445075 -2.03029e-05 0)
(0.00727529 -1.05206e-05 0)
(0.0103008 -3.45665e-05 0)
(0.0137489 -6.56321e-05 0)
(0.0176952 -0.000111115 0)
(0.0218373 -0.000163801 0)
(0.0255204 -0.000219079 0)
(0.028117 -0.000275094 0)
(0.029436 -0.000332891 0)
(0.0289531 -0.000346453 0)
(0.0276734 -0.000291102 0)
(0.0251243 -0.000243604 0)
(0.0215113 -0.000186879 0)
(0.017443 -0.00013171 0)
(0.0135611 -8.40164e-05 0)
(0.0101633 -4.7365e-05 0)
(0.00717762 -2.01401e-05 0)
(0.00438909 -1.30694e-05 0)
(0.00159021 -6.3586e-06 0)
(0.00155862 -8.14764e-07 0)
(0.00430625 -7.86024e-06 0)
(0.00704589 5.99941e-07 0)
(0.00997913 -2.11307e-05 0)
(0.0133152 -4.80185e-05 0)
(0.0171245 -8.8519e-05 0)
(0.0211161 -0.000136797 0)
(0.0246626 -0.000189138 0)
(0.0271615 -0.000244144 0)
(0.0284298 -0.000303531 0)
(0.0278644 -0.000331651 0)
(0.0266227 -0.000270426 0)
(0.0241627 -0.00022073 0)
(0.0206829 -0.000165482 0)
(0.0167685 -0.00011391 0)
(0.0130332 -7.04827e-05 0)
(0.00976173 -3.77156e-05 0)
(0.0068867 -1.37877e-05 0)
(0.00420496 -8.96072e-06 0)
(0.00152035 -4.79863e-06 0)
(0.0014888 -8.58016e-06 0)
(0.00412235 -2.36471e-05 0)
(0.00675623 -1.13936e-05 0)
(0.00958113 -3.46534e-05 0)
(0.0127936 -6.65216e-05 0)
(0.0164572 -0.000113652 0)
(0.0202916 -0.000169008 0)
(0.0236973 -0.000228199 0)
(0.0261007 -0.00028938 0)
(0.0273249 -0.000353772 0)
(0.026791 -0.000371495 0)
(0.0256118 -0.00031007 0)
(0.0232615 -0.000258126 0)
(0.0199333 -0.000196239 0)
(0.0161795 -0.000137379 0)
(0.0125851 -8.73375e-05 0)
(0.00942621 -4.93333e-05 0)
(0.00664438 -2.15803e-05 0)
(0.00405081 -1.42368e-05 0)
(0.00146141 -6.70201e-06 0)
(0.00142671 -3.34991e-06 0)
(0.00396061 -1.25833e-05 0)
(0.00650212 -2.5429e-06 0)
(0.00922867 -2.42982e-05 0)
(0.012322 -5.28941e-05 0)
(0.015838 -9.61124e-05 0)
(0.0195074 -0.000148151 0)
(0.0227607 -0.000205357 0)
(0.0250538 -0.000266158 0)
(0.0262202 -0.000332437 0)
(0.0256044 -0.000362084 0)
(0.0244712 -0.000294742 0)
(0.0222237 -0.00024016 0)
(0.0190461 -0.00017921 0)
(0.0154629 -0.000123247 0)
(0.0120276 -7.66942e-05 0)
(0.00900295 -4.18175e-05 0)
(0.00633679 -1.66558e-05 0)
(0.00385481 -1.09304e-05 0)
(0.00138627 -5.42396e-06 0)
(0.00135176 -1.20495e-05 0)
(0.00376528 -2.99999e-05 0)
(0.00619661 -1.57219e-05 0)
(0.00881014 -3.8472e-05 0)
(0.0117722 -7.19277e-05 0)
(0.0151299 -0.000121619 0)
(0.0186253 -0.000180701 0)
(0.0217204 -0.00024496 0)
(0.0239039 -0.000312432 0)
(0.025018 -0.000384395 0)
(0.0244321 -0.000398607 0)
(0.0233684 -0.000330741 0)
(0.0212434 -0.000274018 0)
(0.0182336 -0.000206757 0)
(0.0148266 -0.000144104 0)
(0.0115442 -9.16627e-05 0)
(0.00863998 -5.22288e-05 0)
(0.00607278 -2.38046e-05 0)
(0.00368541 -1.58554e-05 0)
(0.00132094 -7.19224e-06 0)
(0.00128254 -5.42749e-06 0)
(0.00358626 -1.6328e-05 0)
(0.00591755 -4.94726e-06 0)
(0.00842589 -2.64561e-05 0)
(0.0112602 -5.6305e-05 0)
(0.014458 -0.000101627 0)
(0.0177726 -0.000156893 0)
(0.0206993 -0.000218745 0)
(0.0227604 -0.000285616 0)
(0.0238102 -0.000359435 0)
(0.0231401 -0.000384656 0)
(0.0221273 -0.000311013 0)
(0.0201171 -0.000251832 0)
(0.0172737 -0.00018621 0)
(0.0140535 -0.000127035 0)
(0.0109434 -7.85437e-05 0)
(0.00818291 -4.26282e-05 0)
(0.00573908 -1.70866e-05 0)
(0.00347153 -1.13209e-05 0)
(0.00123842 -5.53525e-06 0)
(0.00119992 -1.33729e-05 0)
(0.0033723 -3.21752e-05 0)
(0.00558474 -1.62995e-05 0)
(0.00797165 -3.85864e-05 0)
(0.0106642 -7.26339e-05 0)
(0.0136895 -0.000123694 0)
(0.0168135 -0.000185202 0)
(0.0195667 -0.000253219 0)
(0.0215074 -0.000325922 0)
(0.0224993 -0.000404673 0)
(0.0218577 -0.000415885 0)
(0.0209185 -0.000341865 0)
(0.0190422 -0.000281227 0)
(0.0163823 -0.000210437 0)
(0.0133554 -0.000145566 0)
(0.0104127 -9.19405e-05 0)
(0.00778328 -5.19903e-05 0)
(0.00544692 -2.35012e-05 0)
(0.00328289 -1.58236e-05 0)
(0.00116516 -7.19899e-06 0)
(0.00112332 -6.32264e-06 0)
(0.00317548 -1.78851e-05 0)
(0.00527973 -5.37322e-06 0)
(0.0075537 -2.68026e-05 0)
(0.0101085 -5.73865e-05 0)
(0.01296 -0.000104181 0)
(0.0158861 -0.00016185 0)
(0.0184546 -0.000227287 0)
(0.0202612 -0.000299011 0)
(0.0211834 -0.000378997 0)
(0.0204654 -0.000401071 0)
(0.0195826 -0.00032225 0)
(0.0178327 -0.000259525 0)
(0.0153552 -0.000190582 0)
(0.0125313 -0.000129114 0)
(0.00977399 -7.92383e-05 0)
(0.00729743 -4.26013e-05 0)
(0.00509118 -1.67987e-05 0)
(0.00305378 -1.12523e-05 0)
(0.00107623 -5.55327e-06 0)
(0.00103471 -1.40533e-05 0)
(0.00294747 -3.32658e-05 0)
(0.00492673 -1.59973e-05 0)
(0.00707309 -3.802e-05 0)
(0.00947751 -7.24423e-05 0)
(0.012144 -0.000124575 0)
(0.0148641 -0.000187952 0)
(0.0172442 -0.000258783 0)
(0.0189197 -0.000335323 0)
(0.0197784 -0.000418979 0)
(0.0190929 -0.000426725 0)
(0.0182882 -0.000348739 0)
(0.0166826 -0.000285978 0)
(0.0144031 -0.000213123 0)
(0.0117874 -0.000146883 0)
(0.00920943 -9.24525e-05 0)
(0.00687217 -5.20545e-05 0)
(0.00477926 -2.33176e-05 0)
(0.00285132 -1.58373e-05 0)
(0.000997075 -7.28862e-06 0)
(0.000953041 -6.53825e-06 0)
(0.00273881 -1.83128e-05 0)
(0.00460496 -5.304e-06 0)
(0.00663361 -2.6997e-05 0)
(0.00889352 -5.82385e-05 0)
(0.0113756 -0.000106218 0)
(0.0138841 -0.000165628 0)
(0.0160657 -0.000233434 0)
(0.017597 -0.000308216 0)
(0.018381 -0.000391958 0)
(0.0176335 -0.000408681 0)
(0.0168898 -0.00032747 0)
(0.0154201 -0.000263428 0)
(0.0133351 -0.000193199 0)
(0.0109342 -0.000130717 0)
(0.00855026 -8.00995e-05 0)
(0.006371 -4.29273e-05 0)
(0.00441144 -1.67177e-05 0)
(0.0026135 -1.11995e-05 0)
(0.000904313 -5.5841e-06 0)
(0.000861015 -1.34503e-05 0)
(0.00250324 -3.21149e-05 0)
(0.00424169 -1.45566e-05 0)
(0.00613998 -3.66269e-05 0)
(0.00824485 -7.09676e-05 0)
(0.0105343 -0.000123266 0)
(0.0128266 -0.000187046 0)
(0.0148097 -0.000258546 0)
(0.0162024 -0.00033612 0)
(0.0169189 -0.000421243 0)
(0.0162117 -0.000423946 0)
(0.0155479 -0.000345215 0)
(0.0142287 -0.00028282 0)
(0.0123499 -0.000210766 0)
(0.0101659 -0.000145295 0)
(0.00796799 -9.14848e-05 0)
(0.00593217 -5.1453e-05 0)
(0.00408863 -2.27533e-05 0)
(0.00240298 -1.54602e-05 0)
(0.000821519 -7.23843e-06 0)
(0.000777283 -4.80362e-06 0)
(0.00229046 -1.54078e-05 0)
(0.00391481 -3.85733e-06 0)
(0.00569436 -2.64833e-05 0)
(0.0076523 -5.78156e-05 0)
(0.00975251 -0.000105756 0)
(0.0118264 -0.00016495 0)
(0.0136038 -0.000232338 0)
(0.0148473 -0.000306593 0)
(0.0154868 -0.000389732 0)
(0.014739 -0.000400312 0)
(0.0141383 -0.000320403 0)
(0.0129592 -0.000257788 0)
(0.0112804 -0.000189697 0)
(0.00931606 -0.000128847 0)
(0.00731498 -7.93057e-05 0)
(0.00543758 -4.26552e-05 0)
(0.00372602 -1.63948e-05 0)
(0.00216812 -1.07827e-05 0)
(0.000729534 -5.45545e-06 0)
(0.000686455 -1.11927e-05 0)
(0.00205885 -2.79469e-05 0)
(0.00355829 -1.16947e-05 0)
(0.0052095 -3.4018e-05 0)
(0.00701306 -6.7447e-05 0)
(0.00891971 -0.000118338 0)
(0.0107755 -0.000180249 0)
(0.0123527 -0.000249438 0)
(0.0134563 -0.000324402 0)
(0.0140274 -0.000406665 0)
(0.0133349 -0.000405407 0)
(0.0128124 -0.00032975 0)
(0.0117815 -0.000270289 0)
(0.0103066 -0.000201842 0)
(0.00855676 -0.00013939 0)
(0.00673939 -8.78923e-05 0)
(0.00500316 -4.94067e-05 0)
(0.00340558 -2.15033e-05 0)
(0.00195843 -1.45657e-05 0)
(0.000646751 -6.93051e-06 0)
(0.00060516 -2.69875e-06 0)
(0.00185296 -1.18447e-05 0)
(0.00324274 -2.54055e-06 0)
(0.00477979 -2.57005e-05 0)
(0.00644131 -5.61799e-05 0)
(0.00816393 -0.000102516 0)
(0.00980625 -0.000159257 0)
(0.0111821 -0.000223212 0)
(0.0121398 -0.000293013 0)
(0.012636 -0.000370669 0)
(0.0119301 -0.000376628 0)
(0.0114703 -0.00030244 0)
(0.010576 -0.00024436 0)
(0.00929615 -0.000181045 0)
(0.00775989 -0.000123961 0)
(0.00613253 -7.71224e-05 0)
(0.0045472 -4.21466e-05 0)
(0.0030729 -1.6654e-05 0)
(0.00174307 -1.08284e-05 0)
(0.000562085 -5.41727e-06 0)
(0.00052246 -1.05744e-05 0)
(0.00164288 -2.64119e-05 0)
(0.00291959 -1.0851e-05 0)
(0.00433899 -3.17793e-05 0)
(0.00585645 -6.31209e-05 0)
(0.00739609 -0.000110858 0)
(0.0088309 -0.000168698 0)
(0.0100155 -0.000232835 0)
(0.0108393 -0.000301647 0)
(0.0112693 -0.000376592 0)
(0.0106363 -0.000368469 0)
(0.0102508 -0.000301691 0)
(0.00949553 -0.000249684 0)
(0.00840557 -0.000187339 0)
(0.00706804 -0.000129368 0)
(0.00560953 -8.10877e-05 0)
(0.00415263 -4.50018e-05 0)
(0.00278118 -1.92003e-05 0)
(0.00155144 -1.34346e-05 0)
(0.000485999 -6.51264e-06 0)
(0.000444732 -9.33508e-06 0)
(0.00144875 -2.16989e-05 0)
(0.00262689 -3.05865e-06 0)
(0.00394798 -1.93046e-05 0)
(0.00534472 -4.63218e-05 0)
(0.00672549 -8.97804e-05 0)
(0.00797114 -0.000143735 0)
(0.00897229 -0.000204068 0)
(0.00965917 -0.000268422 0)
(0.0100176 -0.000338005 0)
(0.00940245 -0.000335536 0)
(0.00907455 -0.000272209 0)
(0.00844634 -0.000222099 0)
(0.00753028 -0.000171813 0)
(0.00637756 -0.000125058 0)
(0.0050796 -8.45348e-05 0)
(0.0037488 -5.16031e-05 0)
(0.00248175 -2.43472e-05 0)
(0.00135508 -1.3706e-05 0)
(0.000408306 -5.74636e-06 0)
(0.000378283 -1.77311e-06 0)
(0.00127884 -1.05091e-05 0)
(0.00236237 -4.68517e-06 0)
(0.00358059 -2.73287e-05 0)
(0.00484768 -5.50929e-05 0)
(0.00606293 -9.59218e-05 0)
(0.00712192 -0.000144632 0)
(0.00795246 -0.000198165 0)
(0.00852051 -0.000255492 0)
(0.00881931 -0.000317974 0)
(0.0082642 -0.000313915 0)
(0.00799378 -0.000257595 0)
(0.00748037 -0.000212652 0)
(0.00672865 -0.000163403 0)
(0.00575498 -0.000116143 0)
(0.00461469 -7.50919e-05 0)
(0.0034062 -4.27469e-05 0)
(0.00223523 -1.75865e-05 0)
(0.00119647 -1.05692e-05 0)
(0.000345903 -5.01361e-06 0)
(0.000313003 -7.39868e-06 0)
(0.00111323 -1.92875e-05 0)
(0.00210837 -4.75294e-06 0)
(0.00323526 -2.27138e-05 0)
(0.00439042 -4.9055e-05 0)
(0.00546256 -8.97062e-05 0)
(0.00635776 -0.000138334 0)
(0.00703598 -0.000190617 0)
(0.00749609 -0.000244293 0)
(0.0077414 -0.000300389 0)
(0.00724996 -0.000296493 0)
(0.00703163 -0.000248733 0)
(0.00662208 -0.0002107 0)
(0.0060151 -0.000167007 0)
(0.00519579 -0.000123165 0)
(0.00418962 -8.34254e-05 0)
(0.00308563 -5.05166e-05 0)
(0.00199964 -2.30849e-05 0)
(0.00104296 -1.33569e-05 0)
(0.000285505 -5.86569e-06 0)
(0.00026085 -5.23186e-06 0)
(0.000980161 -1.62347e-05 0)
(0.00190143 -4.7534e-06 0)
(0.00294788 -2.50401e-05 0)
(0.00400094 -5.18493e-05 0)
(0.00494141 -9.18102e-05 0)
(0.00568648 -0.000138113 0)
(0.00622592 -0.000186136 0)
(0.00658816 -0.000233666 0)
(0.00678475 -0.000281879 0)
(0.00636922 -0.000297997 0)
(0.00619795 -0.000259281 0)
(0.00588082 -0.000225181 0)
(0.0054028 -0.00017835 0)
(0.0047211 -0.00012717 0)
(0.00383378 -7.95889e-05 0)
(0.00282075 -4.18941e-05 0)
(0.00180649 -1.39359e-05 0)
(0.00091731 -9.01051e-06 0)
(0.000235862 -5.17851e-06 0)
(0.000220886 3.77854e-06 0)
(0.000878937 -6.88006e-07 0)
(0.00174386 7.66903e-07 0)
(0.00272668 -2.38404e-05 0)
(0.00369577 -4.96343e-05 0)
(0.00452467 -8.65012e-05 0)
(0.00513921 -0.000128152 0)
(0.00555479 -0.000170019 0)
(0.00582674 -0.000210489 0)