/*--------------------------------*- C++ -*----------------------------------*\
| =========                 |                                                 |
| \\      /  F ield         | OpenFOAM: The Open Source CFD Toolbox           |
|  \\    /   O peration     | Version:  v2006                                 |
|   \\  /    A nd           | Website:  www.openfoam.com                      |
|    \\/     M anipulation  |                                                 |
\*---------------------------------------------------------------------------*/
FoamFile
{
    version     2.0;
    format      ascii;
    class       surfaceScalarField;
    location    "0.1";
    object      phi;
}
// * * * * * * * * * * * * * * * * * * * * * * * * * * * * * * * * * * * * * //

dimensions      [1 0 -1 0 0 0 0];
oriented        oriented;


internalField   nonuniform List<scalar> 
76100
(
-6.49484e-07
-2.2798e-05
2.26868e-05
1.14344e-06
-2.12129e-05
2.09227e-05
3.05978e-07
1.44939e-06
4.18965e-07
2.49771e-05
8.80641e-07
2.78717e-05
-1.35632e-07
2.93656e-05
1.6143e-08
3.06354e-05
-1.84018e-07
3.09921e-05
-1.33797e-07
3.12288e-05
-1.41051e-07
3.12868e-05
-1.57288e-07
3.1296e-05
-1.75762e-07
3.12984e-05
-1.92083e-07
3.12962e-05
-2.0995e-07
3.12977e-05
-2.29258e-07
3.12991e-05
-2.46247e-07
3.12966e-05
-2.65697e-07
3.1299e-05
-2.82619e-07
3.12964e-05
-3.01937e-07
3.12988e-05
-3.18711e-07
3.12962e-05
-3.36625e-07
3.12974e-05
-3.5505e-07
3.12979e-05
-3.72753e-07
3.12971e-05
-3.9035e-07
3.1297e-05
-4.07829e-07
3.12969e-05
-4.25224e-07
3.12968e-05
-4.42564e-07
3.12967e-05
-4.59889e-07
3.12966e-05
-4.77181e-07
3.12965e-05
-4.94447e-07
3.12964e-05
-5.11611e-07
3.12963e-05
-5.28652e-07
3.12961e-05
-5.45539e-07
3.12959e-05
-5.62256e-07
3.12957e-05
-5.78795e-07
3.12954e-05
-5.95144e-07
3.12952e-05
-6.11282e-07
3.12949e-05
-6.27197e-07
3.12947e-05
-6.42881e-07
3.12943e-05
-6.58334e-07
3.1294e-05
-6.7355e-07
3.12937e-05
-6.88536e-07
3.12934e-05
-7.03303e-07
3.12931e-05
-7.17867e-07
3.12928e-05
-7.32249e-07
3.12926e-05
-7.46526e-07
3.12924e-05
-7.60745e-07
3.12922e-05
-7.74926e-07
3.1292e-05
-7.89087e-07
3.12918e-05
-8.03257e-07
3.12917e-05
-8.17445e-07
3.12915e-05
-8.31581e-07
3.12912e-05
-8.45529e-07
3.12908e-05
-8.59082e-07
3.12904e-05
-8.72135e-07
3.129e-05
-8.84728e-07
3.12897e-05
-8.96989e-07
3.12894e-05
-9.08998e-07
3.12892e-05
-9.20808e-07
3.1289e-05
-9.32444e-07
3.12887e-05
-9.43923e-07
3.12885e-05
-9.55237e-07
3.12882e-05
-9.66373e-07
3.12879e-05
-9.77306e-07
3.12876e-05
-9.88019e-07
3.12872e-05
-9.98495e-07
3.12869e-05
-1.00872e-06
3.12865e-05
-1.01869e-06
3.12861e-05
-1.02839e-06
3.12857e-05
-1.03782e-06
3.12853e-05
-1.04696e-06
3.12849e-05
-1.05583e-06
3.12845e-05
-1.0644e-06
3.12841e-05
-1.07269e-06
3.12837e-05
-1.08068e-06
3.12833e-05
-1.08837e-06
3.12829e-05
-1.09576e-06
3.12825e-05
-1.10284e-06
3.1282e-05
-1.10961e-06
3.12816e-05
-1.11604e-06
3.12811e-05
-1.12212e-06
3.12806e-05
-1.12785e-06
3.12801e-05
-1.13323e-06
3.12796e-05
-1.13823e-06
3.12791e-05
-1.14286e-06
3.12786e-05
-1.1471e-06
3.12781e-05
-1.15093e-06
3.12775e-05
-1.15436e-06
3.1277e-05
-1.15738e-06
3.12764e-05
-1.15997e-06
3.12758e-05
-1.16213e-06
3.12752e-05
-1.16385e-06
3.12747e-05
-1.16512e-06
3.12741e-05
-1.16594e-06
3.12734e-05
-1.1663e-06
3.12728e-05
-1.16619e-06
3.12722e-05
-1.1656e-06
3.12716e-05
-1.16452e-06
3.1271e-05
-1.16295e-06
3.12703e-05
-1.16089e-06
3.12697e-05
-1.15834e-06
3.12691e-05
-1.15528e-06
3.12684e-05
-1.15172e-06
3.12678e-05
-1.14765e-06
3.12672e-05
-1.14306e-06
3.12665e-05
-1.13796e-06
3.12659e-05
-1.13235e-06
3.12653e-05
-1.12621e-06
3.12646e-05
-1.11955e-06
3.1264e-05
-1.11237e-06
3.12634e-05
-1.10465e-06
3.12628e-05
-1.09637e-06
3.12621e-05
-1.08755e-06
3.12615e-05
-1.07816e-06
3.12609e-05
-1.06823e-06
3.12603e-05
-1.05771e-06
3.12597e-05
-1.04662e-06
3.12591e-05
-1.03495e-06
3.12585e-05
-1.02271e-06
3.12579e-05
-1.00989e-06
3.12573e-05
-9.96489e-07
3.12568e-05
-9.82527e-07
3.12562e-05
-9.68009e-07
3.12557e-05
-9.52944e-07
3.12553e-05
-9.37346e-07
3.12548e-05
-9.21226e-07
3.12544e-05
-9.04598e-07
3.1254e-05
-8.87474e-07
3.12536e-05
-8.69876e-07
3.12533e-05
-8.51823e-07
3.1253e-05
-8.3334e-07
3.12528e-05
-8.14448e-07
3.12526e-05
-7.95182e-07
3.12524e-05
-7.7557e-07
3.12523e-05
-7.55662e-07
3.12523e-05
-7.35482e-07
3.12523e-05
-7.1509e-07
3.12524e-05
-6.94546e-07
3.12526e-05
-6.73922e-07
3.12529e-05
-6.53289e-07
3.12532e-05
-6.32746e-07
3.12537e-05
-6.12407e-07
3.12542e-05
-5.92395e-07
3.12549e-05
-5.72843e-07
3.12558e-05
-5.53919e-07
3.12568e-05
-5.3582e-07
3.1258e-05
-5.18816e-07
3.12595e-05
-5.0313e-07
3.12611e-05
-4.89083e-07
3.12631e-05
-4.77085e-07
3.12655e-05
-4.67643e-07
3.12683e-05
-4.61457e-07
3.12718e-05
-4.59505e-07
3.12764e-05
-4.6352e-07
3.12826e-05
-4.64381e-07
3.12796e-05
-4.26717e-07
3.12409e-05
-6.63927e-07
3.10292e-05
-5.96799e-07
3.07209e-05
-1.80975e-06
2.9558e-05
-1.78015e-06
2.82984e-05
-3.82079e-06
2.59806e-05
-4.83283e-06
2.49622e-05
-5.15645e-06
4.60138e-06
-5.22797e-06
3.64365e-06
-5.03954e-06
2.79753e-06
-4.61356e-06
2.06336e-06
-3.99013e-06
1.46456e-06
-3.25474e-06
1.0021e-06
-2.44428e-06
6.46866e-07
-1.61134e-06
3.85731e-07
-7.88143e-07
1.97203e-07
5.80791e-08
2.06858e-08
3.95572e-08
9.04222e-08
1.43227e-07
1.99173e-07
2.9382e-07
3.6514e-07
5.07409e-07
5.83384e-07
8.13088e-07
8.58315e-07
1.22533e-06
1.1719e-06
1.78778e-06
1.52661e-06
2.48951e-06
1.88247e-06
3.34356e-06
4.2635e-06
2.29213e-06
-1.36285e-06
4.07772e-06
1.58066e-06
-1.11178e-06
3.13856e-06
-8.79604e-07
2.29756e-06
-6.62817e-07
1.6117e-06
-4.74181e-07
1.07865e-06
-3.19767e-07
7.01047e-07
-2.03646e-07
4.34438e-07
-1.12754e-07
2.48408e-07
-4.56579e-08
1.22428e-07
3.46589e-08
-6.20664e-09
3.35643e-08
4.61686e-09
1.18895e-07
1.70465e-08
2.40541e-07
4.54822e-08
4.18669e-07
9.05422e-08
6.72681e-07
1.55353e-07
1.03594e-06
2.47153e-07
1.54259e-06
3.66697e-07
2.20333e-06
5.09225e-07
3.02055e-06
3.94458e-06
6.69016e-07
-3.12072e-07
3.85168e-06
4.09543e-07
-2.44718e-07
2.94948e-06
-1.87134e-07
2.14958e-06
-1.42072e-07
1.50044e-06
-1.14506e-07
1.01054e-06
-9.28174e-08
6.5647e-07
-7.18084e-08
4.07091e-07
-5.02656e-08
2.35262e-07
-2.71956e-08
1.16595e-07
3.31668e-08
1.63963e-08
3.07132e-08
-2.67153e-08
1.09389e-07
-4.51205e-08
2.24257e-07
-5.34329e-08
3.90067e-07
-4.4059e-08
6.28869e-07
-1.99308e-08
9.71636e-07
2.20206e-08
1.44787e-06
8.29854e-08
2.08178e-06
1.68296e-07
2.86104e-06
3.75494e-06
2.63212e-07
-3.07007e-07
3.72454e-06
3.45661e-07
-2.68323e-07
2.84655e-06
-2.32368e-07
2.07058e-06
-2.03713e-07
1.44673e-06
-1.71878e-07
9.70401e-07
-1.41606e-07
6.32202e-07
-1.08741e-07
3.93705e-07
-7.15285e-08
2.26299e-07
-3.48467e-08
1.12178e-07
3.22122e-08
1.94306e-09
3.21151e-08
1.30737e-08
1.10865e-07
2.12956e-08
2.26057e-07
3.74277e-08
3.90618e-07
6.21932e-08
6.24155e-07
8.85642e-08
9.64682e-07
1.27863e-07
1.43003e-06
1.69751e-07
2.05279e-06
2.16266e-07
2.82296e-06
3.68859e-06
2.74025e-07
-1.21986e-07
3.66062e-06
1.56447e-07
-9.88084e-08
2.79233e-06
-7.90394e-08
2.03495e-06
-6.68208e-08
1.41826e-06
-5.99696e-08
9.5731e-07
-5.29337e-08
6.19787e-07
-4.46502e-08
3.88211e-07
-3.14886e-08
2.24762e-07
-1.77151e-08
1.10352e-07
3.21185e-08
1.51295e-09
3.06149e-08
-1.44322e-08
1.06734e-07
-2.71805e-08
2.18823e-07
-3.78445e-08
3.79291e-07
-3.93811e-08
6.07057e-07
-3.24453e-08
9.39561e-07
-1.65962e-08
1.39452e-06
9.00336e-09
2.00415e-06
4.36186e-08
2.75391e-06
3.61445e-06
8.51336e-08
-1.03784e-07
3.58964e-06
1.34163e-07
-9.64966e-08
2.74693e-06
-8.27646e-08
1.99742e-06
-7.39166e-08
1.39164e-06
-6.80131e-08
9.38993e-07
-6.08231e-08
6.07649e-07
-5.17479e-08
3.80347e-07
-3.73127e-08
2.19952e-07
-2.09877e-08
1.07768e-07
3.12394e-08
1.29224e-08
3.04639e-08
-6.93064e-09
1.05782e-07
-1.47467e-08
2.16441e-07
-1.92267e-08
3.74719e-07
-1.67039e-08
5.99253e-07
-6.8687e-09
9.26972e-07
1.00725e-08
1.37533e-06
3.46377e-08
1.97608e-06
6.52925e-08
2.72017e-06
3.55713e-06
1.00658e-07
-8.00757e-08
3.5366e-06
1.06886e-07
-6.9847e-08
2.70581e-06
-5.72281e-08
1.96695e-06
-5.05919e-08
1.37015e-06
-4.79497e-08
9.24447e-07
-4.43223e-08
5.98335e-07
-3.91973e-08
3.74677e-07
-2.88742e-08
2.1683e-07
-1.74664e-08
1.06344e-07
3.08632e-08
1.38213e-08
3.01947e-08
-4.81324e-09
1.04593e-07
-1.25569e-08
2.13802e-07
-1.91286e-08
3.69963e-07
-1.98039e-08
5.91391e-07
-1.47218e-08
9.14444e-07
-2.978e-09
1.35628e-06
1.53792e-08
1.94822e-06
4.02279e-08
2.68146e-06
3.50621e-06
6.82609e-08
-1.53181e-08
3.4775e-06
5.14084e-08
-1.15999e-08
2.65904e-06
4.60562e-09
1.93172e-06
1.07882e-08
1.34462e-06
1.12896e-08
9.06451e-07
7.9647e-09
5.86106e-07
4.50555e-09
3.66526e-07
1.47881e-09
2.11674e-07
-1.52289e-09
1.03417e-07
2.97641e-08
2.17393e-08
3.00345e-08
2.02751e-08
1.03738e-07
2.31602e-08
2.11773e-07
2.42634e-08
3.66154e-07
2.4394e-08
5.84888e-07
2.78756e-08
9.0381e-07
3.50561e-08
1.33973e-06
4.75463e-08
1.92354e-06
6.44603e-08
2.64645e-06
3.45937e-06
8.52571e-08
-9.84682e-09
3.43167e-06
4.40165e-08
-5.6209e-09
2.62452e-06
8.65145e-09
1.90714e-06
1.40015e-08
1.32793e-06
1.40234e-08
8.95591e-07
1.03526e-08
5.79433e-07
6.3674e-09
3.62654e-07
2.79616e-09
2.09678e-07
-5.28445e-10
1.02607e-07
2.96069e-08
2.23331e-08
2.96117e-08
1.38868e-08
1.02278e-07
1.10294e-08
2.08781e-07
6.356e-09
3.60932e-07
1.35469e-09
5.76459e-07
3.96444e-10
8.90681e-07
3.85133e-09
1.32023e-06
1.39941e-08
1.89559e-06
2.91701e-08
2.60817e-06
3.40955e-06
4.95581e-08
3.3826e-08
3.3752e-06
6.54497e-09
3.28766e-08
2.57981e-06
4.57299e-08
1.87348e-06
4.70893e-08
1.30364e-06
4.20969e-08
8.78599e-07
3.22019e-08
5.67957e-07
2.21082e-08
3.55046e-07
1.25653e-08
2.04908e-07
3.63679e-09
1.00007e-07
2.87347e-08
2.77955e-08
2.81852e-08
8.21294e-09
9.8435e-08
-1.98137e-09
2.02095e-07
-1.37192e-08
3.50619e-07
-2.46162e-08
5.61376e-07
-2.97804e-08
8.69027e-07
-2.88196e-08
1.29023e-06
-1.84437e-08
1.85521e-06
-1.16781e-09
2.55594e-06
3.34501e-06
2.37297e-08
-7.58957e-08
3.33223e-06
9.56647e-08
-6.97455e-08
2.54812e-06
-5.823e-08
1.85144e-06
-5.03821e-08
1.28908e-06
-4.36675e-08
8.69349e-07
-3.68419e-08
5.62372e-07
-2.85458e-08
3.51842e-07
-1.9289e-08
2.03272e-07
-1.00949e-08
9.93861e-08
2.86654e-08
1.44733e-08
2.85727e-08
1.10786e-08
9.89932e-08
9.9333e-09
2.02272e-07
7.42011e-09
3.49778e-07
5.86195e-09
5.58719e-07
8.17656e-09
8.63406e-07
1.54275e-08
1.28011e-06
2.83492e-08
1.83851e-06
4.68478e-08
2.53037e-06
3.3087e-06
7.04802e-08
-5.22049e-08
3.28849e-06
7.79923e-08
-4.58352e-08
2.51541e-06
-3.21398e-08
1.82829e-06
-2.46323e-08
1.27345e-06
-2.00442e-08
8.59259e-07
-1.7346e-08
5.56277e-07
-1.39821e-08
3.4844e-07
-1.00327e-08
2.01664e-07
-6.1934e-09
9.88546e-08
2.86349e-08
1.33773e-08
2.79915e-08
1.89155e-09
9.70749e-08
-6.98097e-09
1.98456e-07
-1.71201e-08
3.43297e-07
-2.44959e-08
5.48529e-07
-2.61306e-08
8.47937e-07
-2.06711e-08
1.25769e-06
-6.74896e-09
1.80719e-06
1.44394e-08
2.48852e-06
3.25543e-06
4.17679e-08
-3.52409e-08
3.23368e-06
6.22551e-08
-2.74758e-08
2.47232e-06
-1.6314e-08
1.79609e-06
-1.11291e-08
1.25053e-06
-9.87279e-09
8.43524e-07
-8.79447e-09
5.45915e-07
-6.9837e-09
3.41783e-07
-3.92598e-09
1.97647e-07
-3.26546e-09
9.67537e-08
2.795e-08
3.29538e-09
2.78374e-08
5.95642e-09
9.62469e-08
5.17616e-09
1.96497e-07
5.2998e-10
3.3966e-07
-1.16157e-09
5.42376e-07
6.83002e-10
8.37876e-07
7.5857e-09
1.24191e-06
1.98514e-08
1.78336e-06
3.77401e-08
2.45432e-06
3.20938e-06
5.96381e-08
-2.43426e-09
3.17974e-06
3.59285e-08
9.465e-10
2.43086e-06
1.28021e-08
1.76582e-06
1.66216e-08
1.22931e-06
1.55453e-08
8.29076e-07
1.13159e-08
5.36464e-07
6.90159e-09
3.35778e-07
3.27444e-09
1.94089e-07
2.91408e-10
9.49118e-08
2.73435e-08
1.99705e-08
2.72532e-08
1.06e-08
9.43898e-08
6.3346e-09
1.92884e-07
4.83794e-10
3.33595e-07
-4.41247e-09
5.32841e-07
-4.93444e-09
8.23264e-07
-6.83826e-11
1.22039e-06
1.12019e-08
1.75267e-06
2.81203e-08
2.41243e-06
3.15505e-06
5.01484e-08
-1.1557e-08
3.12831e-06
4.17369e-08
-6.23555e-09
2.39199e-06
4.08292e-09
1.738e-06
8.00406e-09
1.21029e-06
7.83649e-09
8.16505e-07
5.36568e-09
5.28495e-07
2.79226e-09
3.30888e-07
9.59346e-10
1.91323e-07
-6.0129e-10
9.362e-08
2.70177e-08
6.73421e-09
2.67831e-08
4.22898e-09
9.28181e-08
-2.53237e-11
1.89714e-07
-6.0208e-09
3.28136e-07
-1.05381e-08
5.24145e-07
-1.17168e-08
8.09852e-07
-8.17022e-09
1.20047e-06
7.54483e-10
1.72382e-06
1.56542e-08
2.37218e-06
3.10164e-06
3.63995e-08
-3.22132e-09
3.07218e-06
3.37428e-08
2.59857e-09
2.34942e-06
1.16031e-08
1.70717e-06
1.49082e-08
1.18871e-06
1.3845e-08
8.01766e-07
1.03028e-08
5.1879e-07
6.3753e-09
3.24682e-07
3.34995e-09
1.87624e-07
1.45428e-09
9.17036e-08
2.64012e-08
9.15549e-09
2.62049e-08
5.86616e-09
9.09505e-08
2.00799e-09
1.86059e-07
-3.4841e-09
3.2197e-07
-7.35929e-09
5.14434e-07
-7.44524e-09
7.94973e-07
-2.22724e-09
1.17852e-06
8.55374e-09
1.69237e-06
2.51095e-08
2.32883e-06
3.04474e-06
4.70757e-08
-1.57957e-08
3.01299e-06
4.83706e-08
-6.32315e-09
2.30386e-06
5.61752e-09
1.67382e-06
1.07185e-08
1.16534e-06
1.09046e-08
7.85924e-07
8.07194e-09
5.08467e-07
4.80412e-09
3.18131e-07
2.2147e-09
1.83735e-07
5.01615e-10
8.97108e-08
2.57743e-08
1.46982e-08
2.56709e-08
9.90477e-09
8.91354e-08
7.79332e-09
1.82388e-07
4.46599e-09
3.15661e-07
2.48673e-09
5.04356e-07
4.66758e-09
7.79348e-07
1.23862e-08
1.1553e-06
2.61489e-08
1.65906e-06
4.5893e-08
2.28325e-06
2.98559e-06
7.12339e-08
-3.65997e-08
2.95541e-06
6.92707e-08
-2.36369e-08
2.25992e-06
-9.69047e-09
1.64207e-06
-2.33956e-09
1.14347e-06
2.62617e-10
7.71386e-07
7.62554e-11
4.99216e-07
-6.69218e-10
3.12447e-07
-1.01591e-09
1.80529e-07
-1.205e-09
8.82184e-08
2.53922e-08
7.57947e-09
2.51811e-08
6.51204e-09
8.74207e-08
4.86222e-09
1.78848e-07
2.25677e-09
3.09503e-07
1.30785e-09
4.94486e-07
4.03324e-09
7.64045e-07
1.18844e-08
1.13252e-06
2.54922e-08
1.6262e-06
4.55748e-08
2.23782e-06
2.92597e-06
7.19163e-08
-3.72993e-08
2.89506e-06
7.02808e-08
-2.37983e-08
2.21426e-06
-1.09393e-08
1.60918e-06
-3.41274e-09
1.12068e-06
-3.72722e-10
7.56016e-07
1.03228e-10
4.89248e-07
-3.36286e-10
3.06194e-07
-4.49518e-10
1.76912e-07
-1.41455e-10
8.64514e-08
2.48881e-08
3.30942e-10
2.45857e-08
2.95066e-09
8.54303e-08
1.62521e-09
1.74866e-07
-3.74399e-10
3.02708e-07
-2.19785e-10
4.83757e-07
3.29595e-09
7.4764e-07
1.17458e-08
1.10837e-06
2.54867e-08
1.59158e-06
4.55958e-08
2.18998e-06
2.86296e-06
7.2222e-08
-4.33182e-08
2.82828e-06
7.9115e-08
-2.73148e-08
2.16294e-06
-1.26622e-08
1.57156e-06
-3.85941e-09
1.09415e-06
-2.04921e-11
7.37849e-07
6.77915e-10
4.77294e-07
2.29562e-10
2.98574e-07
-7.32712e-11
1.72407e-07
3.6502e-10
8.41611e-08
2.41754e-08
6.67319e-09
2.40679e-08
8.7341e-09
8.35438e-08
1.01328e-08
1.70922e-07
1.11571e-08
2.95808e-07
1.3978e-08
4.72676e-07
2.05446e-08
7.30487e-07
3.23969e-08
1.08295e-06
4.97347e-08
1.55513e-06
7.31152e-08
2.13992e-06
2.79759e-06
1.02518e-07
-6.09879e-08
2.76321e-06
9.68646e-08
-4.2187e-08
2.11349e-06
-2.56173e-08
1.53591e-06
-1.50617e-08
1.06955e-06
-9.34591e-09
7.21439e-07
-6.63724e-09
4.66821e-07
-4.99296e-09
2.92152e-07
-3.36829e-09
1.68821e-07
-1.50936e-09
8.25249e-08
2.37759e-08
1.90644e-09
2.34054e-08
4.22452e-09
8.1311e-08
3.6745e-09
1.66434e-07
2.87531e-09
2.88139e-07
4.5026e-09
4.60549e-07
1.00492e-08
7.11902e-07
2.11046e-08
1.05557e-06
3.82855e-08
1.51596e-06
6.25658e-08
2.08614e-06
2.72735e-06
9.41192e-08
-5.771e-08
2.68899e-06
9.83279e-08
-3.81053e-08
2.05624e-06
-2.02885e-08
1.49385e-06
-9.30461e-09
1.03987e-06
-3.79856e-09
7.01096e-07
-1.95448e-09
4.534e-07
-1.47566e-09
2.83541e-07
-1.13215e-09
1.63672e-07
-1.88436e-10
7.98667e-08
2.29301e-08
6.97372e-09
2.28108e-08
1.00022e-08
7.91875e-08
1.26649e-08
1.62044e-07
1.53421e-08
2.80516e-07
2.00398e-08
4.48356e-07
2.88292e-08
6.93052e-07
4.3294e-08
1.02761e-06
6.38448e-08
1.47582e-06
9.11228e-08
2.03094e-06
2.65524e-06
1.25049e-07
-7.7712e-08
2.61728e-06
1.18147e-07
-5.53496e-08
2.00178e-06
-3.5651e-08
1.4546e-06
-2.26705e-08
1.01282e-06
-1.49491e-08
6.83066e-07
-1.06555e-08
4.41895e-07
-7.6609e-09
2.76481e-07
-4.96868e-09
1.59727e-07
-2.2292e-09
7.80669e-08
2.24922e-08
3.12065e-09
2.2073e-08
5.28772e-09
7.66982e-08
5.41604e-09
1.57046e-07
5.68488e-09
2.71991e-07
8.64318e-09
4.34894e-07
1.60389e-08
6.72435e-07
2.94585e-08
9.97244e-07
4.97921e-08
1.43239e-06
7.79573e-08
1.97134e-06
2.57745e-06
1.1427e-07
-7.1885e-08
2.53488e-06
1.17764e-07
-4.89601e-08
1.93816e-06
-2.78836e-08
1.40786e-06
-1.46693e-08
9.79851e-07
-7.47954e-09
6.60468e-07
-4.46002e-09
4.26972e-07
-3.0557e-09
2.66884e-07
-2.07024e-09
1.53968e-07
-7.07814e-10
7.50854e-08
2.15417e-08
8.49269e-09
2.13768e-08
1.11338e-08
7.42546e-08
1.43868e-08
1.52047e-07
1.80065e-08
2.63374e-07
2.38982e-08
4.21175e-07
3.44399e-08
6.51272e-07
5.12547e-08
9.65888e-07
7.50465e-08
1.3874e-06
1.06433e-07
1.90954e-06
2.49685e-06
1.45443e-07
-9.37576e-08
2.45462e-06
1.3962e-07
-6.75908e-08
1.87706e-06
-4.43194e-08
1.36376e-06
-2.89148e-08
9.49416e-07
-1.93626e-08
6.40157e-07
-1.37441e-08
4.1398e-07
-9.66443e-09
2.58871e-07
-6.16654e-09
1.4945e-07
-2.92906e-09
7.29928e-08
2.10147e-08
5.52092e-09
2.05645e-08
6.99507e-09
7.15066e-08
7.8434e-09
1.46525e-07
9.17632e-09
2.5396e-07
1.33636e-08
4.06304e-07
2.25717e-08
6.28469e-07
3.84071e-08
9.32239e-07
6.21294e-08
1.33922e-06
9.46138e-08
1.84341e-06
2.41058e-06
1.3629e-07
-8.79425e-08
2.36385e-06
1.39023e-07
-6.10691e-08
1.80711e-06
-3.65822e-08
1.31251e-06
-2.09752e-08
9.13398e-07
-1.19936e-08
6.15575e-07
-7.5963e-09
3.97806e-07
-5.07691e-09
2.48499e-07
-3.22615e-09
1.43246e-07
-1.41242e-09
6.98025e-08
2.00134e-08
9.76752e-09
1.97453e-08
1.09422e-08
6.86911e-08
1.37734e-08
1.40835e-07
1.72703e-08
2.44232e-07
2.33737e-08
3.9089e-07
3.47855e-08
6.04739e-07
5.32147e-08
8.97091e-07
7.98153e-08
1.28878e-06
1.15323e-07
1.77412e-06
2.32026e-06
1.59942e-07
-1.0429e-07
2.2731e-06
1.55635e-07
-7.4055e-08
1.73788e-06
-4.77684e-08
1.26243e-06
-3.03319e-08
8.78743e-07
-1.95267e-08
5.92348e-07
-1.31896e-08
3.82846e-07
-8.87147e-09
2.39169e-07
-5.44222e-09
1.3789e-07
-2.60005e-09
6.72414e-08
1.93215e-08
4.43771e-09
1.88428e-08
6.65861e-09
6.56416e-08
8.14637e-09
1.34718e-07
1.05222e-08
2.33817e-07
1.60824e-08
3.74461e-07
2.69762e-08
5.79561e-07
4.49575e-08
8.59919e-07
7.15198e-08
1.23547e-06
1.07888e-07
1.70082e-06
2.22447e-06
1.5466e-07
-1.023e-07
2.1732e-06
1.581e-07
-7.09651e-08
1.66118e-06
-4.36861e-08
1.20643e-06
-2.57523e-08
8.39503e-07
-1.50161e-08
5.65626e-07
-9.24064e-09
3.65299e-07
-5.831e-09
2.27953e-07
-3.41166e-09
1.3122e-07
-1.30265e-09
6.38475e-08
1.82782e-08
8.06634e-09
1.79299e-08
9.81098e-09
6.25077e-08
1.28401e-08
1.28391e-07
1.69478e-08
2.23016e-07
2.41193e-08
3.57373e-07
3.69803e-08
5.53295e-07
5.73973e-08
8.21043e-07
8.67396e-08
1.17965e-06
1.26092e-07
1.62403e-06
2.12419e-06
1.75832e-07
-1.16435e-07
2.07181e-06
1.73063e-07
-8.21085e-08
1.58385e-06
-5.30435e-08
1.15047e-06
-3.34194e-08
8.00718e-07
-2.10674e-08
5.39558e-07
-1.36718e-08
3.48437e-07
-8.79425e-09
2.17373e-07
-5.13998e-09
1.25094e-07
-2.25509e-09
6.08762e-08
1.74516e-08
2.82324e-09
1.69212e-08
6.07042e-09
5.91034e-08
8.1703e-09
1.21577e-07
1.15896e-08
2.11442e-07
1.8612e-08
3.39152e-07
3.13136e-08
5.25407e-07
5.16075e-08
7.79888e-07
8.11598e-08
1.12063e-06
1.21497e-07
1.54281e-06
2.01796e-06
1.73414e-07
-1.16418e-07
1.96146e-06
1.7771e-07
-8.08842e-08
1.49919e-06
-5.05822e-08
1.0887e-06
-3.03089e-08
7.57465e-07
-1.78364e-08
5.10108e-07
-1.0814e-08
3.29095e-07
-6.58827e-09
2.05007e-07
-3.68181e-09
1.17745e-07
-1.25505e-09
5.71457e-08
1.63117e-08
7.16983e-09
1.59203e-08
9.79034e-09
5.56535e-08
1.35912e-08
1.14605e-07
1.88713e-08
1.99536e-07
2.75799e-08
3.20328e-07
4.235e-08
4.96483e-07
6.52114e-08
7.3708e-07
9.77337e-08
1.05914e-06
1.41245e-07
1.45817e-06
1.90734e-06
1.9632e-07
-1.30805e-07
1.8498e-06
1.93e-07
-9.23761e-08
1.41403e-06
-6.01473e-08
1.02708e-06
-3.82148e-08
7.14765e-07
-2.41808e-08
4.81403e-07
-1.56032e-08
3.10513e-07
-9.89189e-09
1.93332e-07
-5.68767e-09
1.10975e-07
-2.42659e-09
5.38562e-08
1.5394e-08
3.0665e-09
1.48072e-08
6.32744e-09
5.19006e-08
8.79965e-09
1.07104e-07
1.29079e-08
1.8682e-07
2.09547e-08
3.00332e-07
3.51735e-08
4.65888e-07
5.76261e-08
6.9192e-07
9.02387e-08
9.94345e-07
1.347e-07
1.36899e-06
1.79072e-06
1.91966e-07
-1.27901e-07
1.72916e-06
1.94781e-07
-8.88128e-08
1.32152e-06
-5.55853e-08
9.59639e-07
-3.33549e-08
6.67574e-07
-1.95796e-08
4.49292e-07
-1.17559e-08
2.89421e-07
-7.03253e-09
1.79831e-07
-3.8637e-09
1.02936e-07
-1.33048e-09
4.9768e-08
1.4143e-08
7.19552e-09
1.37054e-08
9.86498e-09
4.8122e-08
1.39043e-08
9.94949e-08
1.96704e-08
1.73861e-07
2.91766e-08
2.79874e-07
4.51777e-08
4.34472e-07
6.98707e-08
6.45403e-07
1.05065e-07
9.27469e-07
1.52284e-07
1.27686e-06
1.67022e-06
2.12261e-07
-1.40098e-07
1.60807e-06
2.07385e-07
-9.85847e-08
1.22922e-06
-6.37934e-08
8.92896e-07
-4.01926e-08
6.21351e-07
-2.51177e-08
4.18223e-07
-1.59662e-08
2.69292e-07
-9.95934e-09
1.67159e-07
-5.65092e-09
9.55621e-08
-2.39905e-09
4.61668e-08
1.31294e-08
3.67484e-09
1.24929e-08
6.47165e-09
4.40545e-08
8.84773e-09
9.13962e-08
1.30218e-08
1.60168e-07
2.14155e-08
2.58377e-07
3.64482e-08
4.01595e-07
6.0333e-08
5.96854e-07
9.52219e-08
8.57762e-07
1.42927e-07
1.18085e-06
1.54461e-06
2.0451e-07
-1.34445e-07
1.47914e-06
2.05804e-07
-9.30676e-08
1.13043e-06
-5.76905e-08
8.20956e-07
-3.41735e-08
5.7107e-07
-1.96845e-08
3.84033e-07
-1.1569e-08
2.46828e-07
-6.76988e-09
1.5276e-07
-3.66512e-09
8.69681e-08
-1.28043e-09
4.17834e-08
1.17837e-08
7.52686e-09
1.13115e-08
9.9412e-09
4.0025e-08
1.39398e-08
8.33116e-08
1.97839e-08
1.46438e-07
2.95782e-08
2.36739e-07
4.61929e-08
3.68385e-07
7.19438e-08
5.47658e-07
1.08839e-07
7.8696e-07
1.58538e-07
1.08319e-06
1.41676e-06
2.21861e-07
-1.44749e-07
1.3517e-06
2.15332e-07
-1.01689e-07
1.03336e-06
-6.53329e-08
7.50834e-07
-4.08214e-08
5.22548e-07
-2.52423e-08
3.51428e-07
-1.58956e-08
2.25691e-07
-9.83133e-09
1.3943e-07
-5.55909e-09
7.91881e-08
-2.403e-09
3.79675e-08
1.07017e-08
4.82294e-09
1.0039e-08
6.85853e-09
3.57732e-08
8.99473e-09
7.48715e-08
1.29514e-08
1.32201e-07
2.12436e-08
2.14415e-07
3.64827e-08
3.34248e-07
6.0955e-08
4.97214e-07
9.69642e-08
7.14462e-07
1.46332e-07
9.83251e-07
1.28591e-06
2.10162e-07
-1.35718e-07
1.21892e-06
2.08946e-07
-9.38155e-08
9.31725e-07
-5.76223e-08
6.76924e-07
-3.37865e-08
4.70969e-07
-1.92331e-08
3.16396e-07
-1.12203e-08
2.02679e-07
-6.54344e-09
1.24665e-07
-3.56565e-09
7.03564e-08
-1.35338e-09
3.34515e-08
9.3118e-09
8.37417e-09
8.8124e-09
1.00286e-08
3.16281e-08
1.36172e-08
6.66023e-08
1.896e-08
1.18211e-07
2.82593e-08
1.92413e-07
4.45071e-08
3.00491e-07
7.00672e-08
4.47173e-07
1.07061e-07
6.42357e-07
1.57153e-07
8.83674e-07
1.15544e-06
2.21199e-07
-1.42469e-07
1.09037e-06
2.13023e-07
-9.97807e-08
8.33865e-07
-6.3565e-08
6.06285e-07
-3.93979e-08
4.22131e-07
-2.41989e-08
2.83596e-07
-1.5216e-08
1.81404e-07
-9.43083e-09
1.11216e-07
-5.36599e-09
6.24717e-08
-2.42477e-09
2.95555e-08
8.19216e-09
5.94741e-09
7.54409e-09
7.32018e-09
2.74065e-08
9.24805e-09
5.82442e-08
1.28459e-08
1.04138e-07
2.06255e-08
1.70363e-07
3.53034e-08
2.6676e-07
5.91478e-08
3.97276e-07
9.44711e-08
5.70555e-07
1.43024e-07
7.84588e-07
1.02562e-06
2.05853e-07
-1.3039e-07
9.60855e-07
2.01293e-07
-9.00896e-08
7.34869e-07
-5.51216e-08
5.34421e-07
-3.22341e-08
3.7208e-07
-1.83779e-08
2.49663e-07
-1.08075e-08
1.5914e-07
-6.39071e-09
9.69337e-08
-3.53279e-09
5.39256e-08
-1.45931e-09
2.51866e-08
6.85089e-09
8.5835e-09
6.33617e-09
9.35151e-09
2.33687e-08
1.20653e-08
5.02409e-08
1.6263e-08
9.0654e-08
2.42276e-08
1.492e-07
3.89216e-08
2.34303e-07
6.26412e-08
3.49128e-07
9.74766e-08
5.011e-07
1.45002e-07
6.88571e-07
8.99729e-07
2.06021e-07
-1.30321e-07
8.38607e-07
1.96461e-07
-9.06964e-08
6.41838e-07
-5.70458e-08
4.67303e-07
-3.4744e-08
3.25694e-07
-2.09382e-08
2.18505e-07
-1.29519e-08
1.38903e-07
-7.95271e-09
8.41009e-08
-4.48875e-09
4.63584e-08
-2.05927e-09
2.14108e-08
5.74581e-09
5.16241e-09
5.17177e-09
6.71176e-09
1.94881e-08
8.43255e-09
4.25542e-08
1.15919e-08
7.77074e-08
1.85607e-08
1.28901e-07
3.18145e-08
2.03216e-07
5.34777e-08
3.03064e-07
8.56213e-08
4.34686e-07
1.29925e-07
5.96738e-07
7.79186e-07
1.87349e-07
-1.14043e-07
7.2096e-07
1.77965e-07
-7.83162e-08
5.52136e-07
-4.72133e-08
4.02339e-07
-2.67624e-08
2.80522e-07
-1.45082e-08
1.87902e-07
-7.96712e-09
1.18825e-07
-4.41295e-09
7.12264e-08
-2.2886e-09
3.86683e-08
-8.42363e-10
1.7498e-08
4.55858e-09
5.08652e-09
3.99519e-09
4.35821e-09
1.56312e-08
4.19863e-09
3.49923e-08
5.38407e-09
6.5057e-08
1.04667e-08
1.09177e-07
2.18858e-08
1.73162e-07
4.18164e-08
2.58741e-07
7.21743e-08
3.71037e-07
1.14479e-07
5.09012e-07
6.64358e-07
1.6936e-07
-1.22771e-07
6.12706e-07
1.76949e-07
-8.72298e-08
4.69765e-07
-5.83182e-08
3.42905e-07
-3.89329e-08
2.39436e-07
-2.64948e-08
1.60287e-07
-1.85439e-08
1.00866e-07
-1.26332e-08
5.98079e-08
-7.69535e-09
3.1902e-08
-3.59191e-09
1.40903e-08
3.54209e-09
6.43843e-09
3.07479e-09
7.82308e-09
1.25193e-08
9.61293e-09
2.87755e-08
1.20844e-08
5.45108e-08
1.75268e-08
9.24985e-08
2.8474e-08
1.47371e-07
4.70297e-08
2.20173e-07
7.48965e-08
3.15017e-07
1.13627e-07
4.31145e-07
5.61855e-07
1.63638e-07
-1.03033e-07
5.13831e-07
1.54249e-07
-7.14376e-08
3.94421e-07
-4.48952e-08
2.88477e-07
-2.74688e-08
2.01781e-07
-1.69097e-08
1.34965e-07
-1.09202e-08
8.43945e-08
-7.09579e-09
4.93313e-08
-4.23023e-09
2.5687e-08
-2.05733e-09
1.09496e-08
2.59681e-09
4.93617e-09
2.15013e-09
5.58501e-09
9.46043e-09
5.89262e-09
2.27463e-08
6.81246e-09
4.43834e-08
1.0731e-08
7.66318e-08
1.99126e-08
1.2306e-07
3.62507e-08
1.84126e-07
6.11651e-08
2.63028e-07
9.5932e-08
3.59281e-07
4.67604e-07
1.40845e-07
-9.03429e-08
4.25361e-07
1.35139e-07
-6.34914e-08
3.27025e-07
-4.05544e-08
2.39794e-07
-2.56832e-08
1.68084e-07
-1.67358e-08
1.12282e-07
-1.16119e-08
6.96142e-08
-8.04789e-09
3.99059e-08
-5.03366e-09
2.00738e-08
-2.48735e-09
8.096e-09
1.72969e-09
5.14564e-09
1.35278e-09
6.0393e-09
6.8238e-09
6.50243e-09
1.75532e-08
7.2761e-09
3.56646e-08
1.04874e-08
6.29585e-08
1.82441e-08
1.02062e-07
3.21773e-08
1.52889e-07
5.35834e-08
2.1782e-07
8.35015e-08
2.96584e-07
3.85183e-07
1.2221e-07
-7.36943e-08
3.47613e-07
1.14558e-07
-5.0343e-08
2.67812e-07
-2.92872e-08
1.96986e-07
-1.56355e-08
1.38411e-07
-7.92915e-09
9.22585e-08
-4.33377e-09
5.65177e-08
-2.64717e-09
3.1506e-08
-1.63217e-09
1.5031e-08
-8.88747e-10
5.505e-09
9.31372e-10
6.6677e-09
5.92249e-10
7.8449e-09
4.40318e-09
8.82633e-09
1.28824e-08
9.51357e-09
2.79191e-08
1.17531e-08
5.0903e-08
1.77557e-08
8.36345e-08
2.89971e-08
1.25564e-07
4.67818e-08
1.78362e-07
7.1901e-08
2.41954e-07
3.13496e-07
1.04434e-07
-5.97523e-08
2.81575e-07
9.53496e-08
-4.01051e-08
2.17675e-07
-2.26477e-08
1.60897e-07
-1.15395e-08
1.13536e-07
-5.58779e-09
7.55902e-08
-3.03945e-09
4.57019e-08
-1.99194e-09
2.46258e-08
-1.31476e-09
1.09317e-08
-6.58616e-10
3.41607e-09
2.9573e-10
5.77469e-09
-9.12111e-12
7.31632e-09
2.44323e-09
8.25804e-09
9.0421e-09
8.83287e-09
2.1477e-08
1.07544e-08
4.07983e-08
1.59166e-08
6.81181e-08
2.55704e-08
1.02501e-07
4.07099e-08
1.45018e-07
6.19371e-08
1.95743e-07
2.52763e-07
8.91776e-08
-5.00904e-08
2.2606e-07
8.06866e-08
-3.41526e-08
1.75478e-07
-1.93721e-08
1.30475e-07
-9.95206e-09
9.25119e-08
-4.98508e-09
6.14568e-08
-2.93204e-09
3.65051e-08
-2.09835e-09
1.8768e-08
-1.46608e-09
7.44433e-09
-7.40414e-10
1.64147e-09
-2.44167e-10
5.12637e-09
-5.11872e-10
7.00356e-09
8.04174e-10
7.95035e-09
5.82814e-09
8.42567e-09
1.60808e-08
1.00142e-08
3.23295e-08
1.43762e-08
5.51162e-08
2.25785e-08
8.31893e-08
3.53631e-08
1.17117e-07
5.31448e-08
1.57098e-07
2.01978e-07
7.57205e-08
-4.1702e-08
1.80071e-07
6.76009e-08
-2.89376e-08
1.405e-07
-1.65415e-08
1.05246e-07
-8.63449e-09
7.50672e-08
-4.53858e-09
4.97284e-08
-2.9203e-09
2.88807e-08
-2.25984e-09
1.39224e-08
-1.65159e-09
4.56762e-09
-8.52225e-10
1.81051e-10
-6.88086e-10
4.54767e-09
-9.13348e-10
6.67475e-09
-5.12489e-10
7.62782e-09
3.23267e-09
8.03476e-09
1.17014e-08
9.33377e-09
2.54303e-08
1.29762e-08
4.45001e-08
1.98502e-08
6.74067e-08
3.04749e-08
9.43118e-08
4.51044e-08
1.255e-07
1.60435e-07
6.34525e-08
-3.42532e-08
1.42758e-07
5.61499e-08
-2.43122e-08
1.12158e-07
-1.39801e-08
8.48103e-08
-7.37967e-09
6.09411e-08
-4.03091e-09
4.02437e-08
-2.77973e-09
2.27333e-08
-2.27774e-09
1.00359e-08
-1.7225e-09
2.27683e-09
-9.10887e-10
-9.71993e-10
-1.03471e-09
4.0734e-09
-1.22482e-09
6.44673e-09
-1.54678e-09
7.47988e-09
1.17336e-09
7.92693e-09
8.19726e-09
9.08281e-09
1.9877e-08
1.22223e-08
3.59276e-08
1.80763e-08
5.46494e-08
2.69817e-08
7.58835e-08
3.90596e-08
9.99603e-08
1.26904e-07
5.38705e-08
-2.80756e-08
1.12728e-07
4.66066e-08
-2.03923e-08
8.93254e-08
-1.17677e-08
6.83351e-08
-6.28245e-09
4.95444e-08
-3.57113e-09
3.25907e-08
-2.64311e-09
1.77859e-08
-2.28212e-09
6.92636e-09
-1.7786e-09
4.59841e-10
-9.66423e-10
-1.87773e-09
-1.30414e-09
3.67768e-09
-1.45864e-09
6.19067e-09
-2.33935e-09
7.28059e-09
-4.29601e-10
7.77789e-09
5.43546e-09
8.82818e-09
1.54635e-08
1.15549e-08
2.90875e-08
1.65407e-08
4.44612e-08
2.39918e-08
6.11601e-08
3.38865e-08
7.95806e-08
1.00044e-07
4.58209e-08
-2.21842e-08
8.88419e-08
3.79473e-08
-1.64682e-08
7.11768e-08
-9.30564e-09
5.52284e-08
-4.82123e-09
4.04713e-08
-2.72357e-09
2.65051e-08
-2.15809e-09
1.38695e-08
-2.00933e-09
4.48621e-09
-1.64925e-09
-9.48407e-10
-9.40446e-10
-2.56919e-09
-1.504e-09
3.47202e-09
-1.64347e-09
6.18991e-09
-2.95206e-09
7.3685e-09
-1.66259e-09
7.88722e-09
3.30467e-09
8.79731e-09
1.2034e-08
1.11209e-08
2.37328e-08
1.53312e-08
3.64416e-08
2.15314e-08
4.95353e-08
2.95893e-08
6.34426e-08
7.87639e-08
3.90676e-08
-1.91599e-08
7.00354e-08
3.21467e-08
-1.54322e-08
5.68956e-08
-9.28583e-09
4.49521e-08
-5.25321e-09
3.33841e-08
-3.27523e-09
2.17728e-08
-2.64782e-09
1.08403e-08
-2.37762e-09
2.6052e-09
-1.88996e-09
-2.03923e-09
-1.07315e-09
-3.11723e-09
-1.67507e-09
3.19312e-09
-1.76535e-09
5.35718e-09
-3.38337e-09
6.30823e-09
-2.56506e-09
6.79518e-09
1.69599e-09
7.63052e-09
9.39144e-09
9.72361e-09
1.95633e-08
1.33838e-08
3.0175e-08
1.87016e-08
4.04432e-08
2.53993e-08
5.08184e-08
6.20564e-08
3.31518e-08
-1.58225e-08
5.54461e-08
2.83789e-08
-1.34818e-08
4.57183e-08
-7.81048e-09
3.68223e-08
-4.19183e-09
2.77114e-08
-2.39478e-09
1.79622e-08
-1.89598e-09
8.42313e-09
-1.74808e-09
1.15717e-09
-1.4891e-09
-2.81838e-09
-9.71454e-10
-3.46322e-09
-1.76349e-09
3.6018e-09
-1.80455e-09
4.51439e-09
-3.62367e-09
5.13555e-09
-3.17252e-09
5.6942e-09