/*--------------------------------*- C++ -*----------------------------------*\
| =========                 |                                                 |
| \\      /  F ield         | OpenFOAM: The Open Source CFD Toolbox           |
|  \\    /   O peration     | Version:  v2006                                 |
|   \\  /    A nd           | Website:  www.openfoam.com                      |
|    \\/     M anipulation  |                                                 |
\*---------------------------------------------------------------------------*/
FoamFile
{
    version     2.0;
    format      ascii;
    class       volScalarField;
    location    "0.1";
    object      T;
}
// * * * * * * * * * * * * * * * * * * * * * * * * * * * * * * * * * * * * * //

dimensions      [0 0 0 1 0 0 0];


internalField   nonuniform List<scalar> 
38348
(
294.146
293.941
299.173
299.229
299.267
299.281
299.245
299.246
299.238
299.239
299.239
299.238
299.238
299.238
299.238
299.238
299.238
299.238
299.238
299.238
299.238
299.238
299.238
299.238
299.238
299.238
299.238
299.238
299.238
299.238
299.238
299.238
299.238
299.238
299.238
299.238
299.238
299.238
299.238
299.238
299.238
299.238
299.238
299.238
299.238
299.238
299.238
299.238
299.238
299.238
299.238
299.238
299.238
299.238
299.238
299.238
299.238
299.238
299.238
299.238
299.238
299.238
299.238
299.238
299.238
299.238
299.238
299.238
299.238
299.238
299.238
299.238
299.238
299.238
299.238
299.238
299.238
299.238
299.238
299.238
299.238
299.238
299.238
299.238
299.238
299.238
299.238
299.238
299.238
299.238
299.238
299.238
299.238
299.238
299.238
299.238
299.238
299.238
299.238
299.238
299.238
299.238
299.238
299.238
299.238
299.238
299.238
299.238
299.238
299.238
299.238
299.238
299.238
299.238
299.238
299.238
299.238
299.238
299.238
299.238
299.238
299.238
299.238
299.238
299.238
299.238
299.238
299.238
299.238
299.238
299.238
299.238
299.238
299.238
299.238
299.238
299.238
299.238
299.238
299.238
299.238
299.238
299.237
299.237
299.237
299.237
299.237
299.236
299.236
299.236
299.236
299.236
299.236
299.236
299.236
299.236
299.238
299.237
299.248
299.253
299.299
299.303
299.294
299.097
298.93
298.733
298.501
298.281
298.091
297.942
297.828
297.756
297.729
291.875
291.913
291.975
292.088
292.274
292.532
292.855
293.219
293.581
293.876
290.591
290.383
290.178
289.951
289.758
289.604
289.499
289.431
289.399
289.388
288.58
288.567
288.589
288.636
288.715
288.825
288.963
289.128
289.308
289.498
289.852
289.953
290.017
290.101
290.182
290.239
290.284
290.316
290.338
290.346
290.806
290.805
290.813
290.811
290.795
290.77
290.724
290.649
290.543
290.425
290.333
290.446
290.497
290.507
290.492
290.46
290.435
290.422
290.421
290.42
289.279
289.278
289.3
289.343
289.411
289.499
289.596
289.695
289.779
289.85
290.165
290.307
290.41
290.513
290.602
290.666
290.721
290.769
290.805
290.821
289.726
289.691
289.721
289.769
289.827
289.893
289.959
290.017
290.053
290.07
290.181
290.275
290.315
290.351
290.375
290.384
290.392
290.4
290.408
290.41
289.941
289.939
289.95
289.964
289.988
290.02
290.052
290.076
290.084
290.081
290.305
290.461
290.559
290.651
290.72
290.764
290.796
290.823
290.841
290.847
290.095
290.094
290.106
290.126
290.156
290.195
290.229
290.25
290.241
290.215
290.283
290.405
290.413
290.44
290.451
290.455
290.458
290.461
290.464
290.461
290.25
290.27
290.263
290.26
290.268
290.284
290.298
290.294
290.276
290.233
290.221
290.313
290.319
290.337
290.342
290.341
290.34
290.341
290.342
290.339
290.326
290.342
290.334
290.326
290.323
290.324
290.319
290.299
290.267
290.219
290.332
290.465
290.521
290.587
290.633
290.663
290.684
290.698
290.706
290.706
290.699
290.718
290.71
290.696
290.678
290.659
290.627
290.572
290.497
290.402
290.215
290.278
290.24
290.206
290.156
290.11
290.074
290.052
290.039
290.031
290.077
290.083
290.079
290.079
290.09
290.109
290.127
290.134
290.131
290.112
290.1
290.164
290.154
290.157
290.149
290.139
290.132
290.129
290.128
290.124
290.289
290.284
290.277
290.27
290.263
290.256
290.242
290.218
290.185
290.146
290.311
290.441
290.513
290.571
290.605
290.622
290.638
290.662
290.681
290.688
289.976
289.959
289.974
290.001
290.036
290.072
290.105
290.129
290.136
290.128
290.089
290.121
290.103
290.092
290.074
290.056
290.042
290.034
290.031
290.028
290.202
290.216
290.209
290.203
290.203
290.208
290.21
290.2
290.18
290.149
290.121
290.155
290.148
290.14
290.123
290.105
290.093
290.085
290.083
290.08
289.677
289.667
289.67
289.684
289.709
289.747
289.794
289.846
289.897
289.94
289.794
289.721
289.646
289.579
289.523
289.478
289.447
289.426
289.416
289.414
289.497
289.491
289.491
289.499
289.517
289.549
289.591
289.644
289.707
289.776
289.865
289.835
289.788
289.75
289.716
289.686
289.665
289.651
289.644
289.642
289.854
289.861
289.857
289.857
289.864
289.879
289.898
289.914
289.93
289.946
290.003
290.015
289.996
289.98
289.959
289.939
289.925
289.916
289.912
289.91
289.741
289.738
289.741
289.752
289.771
289.799
289.834
289.871
289.908
289.939
289.799
289.744
289.678
289.617
289.567
289.527
289.499
289.481
289.472
289.47
289.293
289.279
289.286
289.303
289.329
289.367
289.42
289.491
289.578
289.674
289.666
289.591
289.511
289.444
289.391
289.35
289.321
289.302
289.291
289.29
289.424
289.423
289.426
289.434
289.45
289.477
289.514
289.562
289.625
289.699
289.766
289.723
289.665
289.616
289.576
289.544
289.522
289.507
289.5
289.498
289.401
289.391
289.398
289.413
289.435
289.468
289.513
289.572
289.645
289.724
289.704
289.652
289.578
289.518
289.47
289.433
289.406
289.388
289.378
289.375
289.45
289.452
289.455
289.462
289.478
289.503
289.537
289.583
289.644
289.714
289.764
289.735
289.678
289.632
289.595
289.566
289.545
289.531
289.524
289.522
289.438
289.431
289.439
289.452
289.472
289.501
289.541
289.595
289.662
289.736
289.723
289.691
289.621
289.566
289.524
289.491
289.467
289.45
289.441
289.438
289.531
289.537
289.539
289.545
289.557
289.577
289.605
289.641
289.691
289.749
289.811
289.808
289.761
289.726
289.698
289.674
289.658
289.647
289.641
289.639
289.554
289.553
289.559
289.57
289.586
289.61
289.642
289.683
289.735
289.792
289.773
289.765
289.707
289.665
289.631
289.605
289.586
289.572
289.565
289.562
289.665
289.673
289.675
289.678
289.686
289.7
289.719
289.742
289.776
289.816
289.853
289.865
289.828
289.802
289.781
289.763
289.751
289.743
289.739
289.736
289.574
289.573
289.58
289.592
289.607
289.629
289.658
289.697
289.747
289.802
289.751
289.742
289.684
289.641
289.609
289.585
289.567
289.555
289.548
289.546
289.628
289.635
289.638
289.642
289.651
289.664
289.683
289.708
289.747
289.793
289.818
289.825
289.783
289.754
289.732
289.715
289.703
289.696
289.692
289.69
289.53
289.528
289.537
289.549
289.564
289.584
289.613
289.654
289.708
289.77
289.731
289.723
289.665
289.622
289.592
289.569
289.552
289.541
289.534
289.532
289.617
289.623
289.627
289.632
289.64
289.651
289.669
289.694
289.733
289.782
289.815
289.829
289.788
289.761
289.741
289.726
289.716
289.708
289.705
289.703
289.564
289.563
289.572
289.583
289.596
289.614
289.639
289.675
289.724
289.782
289.75
289.754
289.7
289.663
289.637
289.617
289.603
289.592
289.586
289.585
289.658
289.665
289.669
289.673
289.68
289.689
289.704
289.725
289.76
289.803
289.831
289.854
289.817
289.794
289.778
289.765
289.756
289.75
289.747
289.746
289.609
289.609
289.618
289.628
289.639
289.654
289.675
289.706
289.75
289.802
289.77
289.786
289.737
289.704
289.681
289.664
289.651
289.642
289.636
289.635
289.685
289.692
289.695
289.699
289.705
289.714
289.727
289.747
289.779
289.818
289.842
289.87
289.834
289.813
289.797
289.786
289.777
289.771
289.768
289.766
289.636
289.638
289.645
289.654
289.665
289.678
289.698
289.726
289.768
289.815
289.788
289.81
289.763
289.733
289.711
289.694
289.682
289.672
289.667
289.665
289.695
289.702
289.706
289.71
289.716
289.725
289.74
289.76
289.792
289.831
289.854
289.883
289.846
289.824
289.807
289.793
289.783
289.776
289.773
289.771
289.649
289.651
289.658
289.667
289.678
289.692
289.712
289.741
289.781
289.826
289.8
289.823
289.777
289.748
289.725
289.707
289.694
289.685
289.679
289.677
289.69
289.697
289.7
289.704
289.711
289.723
289.74
289.763
289.796
289.836
289.85
289.87
289.832
289.807
289.787
289.771
289.759
289.752
289.748
289.746
289.613
289.615
289.621
289.631
289.642
289.658
289.68
289.712
289.755
289.806
289.775
289.787
289.742
289.714
289.695
289.681
289.672
289.665
289.662
289.66
289.805
289.806
289.809
289.81
289.809
289.807
289.806
289.813
289.831
289.859
289.81
289.784
289.719
289.666
289.618
289.579
289.549
289.53
289.52
289.516
289.652
289.652
289.655
289.662
289.674
289.692
289.716
289.745
289.783
289.826
289.84
289.833
289.787
289.753
289.725
289.701
289.685
289.674
289.669
289.666
289.724
289.723
289.726
289.73
289.736
289.743
289.755
289.772
289.8
289.837
289.809
289.785
289.724
289.674
289.629
289.592
289.565
289.547
289.538
289.534
289.628
289.628
289.632
289.638
289.649
289.663
289.684
289.712
289.751
289.798
289.738
289.707
289.647
289.608
289.581
289.563
289.552
289.546
289.543
289.541
289.484
289.482
289.485
289.495
289.513
289.541
289.579
289.625
289.683
289.748
289.785
289.775
289.738
289.718
289.705
289.696
289.691
289.688
289.686
289.686
289.454
289.452
289.456
289.467
289.487
289.516
289.556
289.606
289.667
289.736
289.781
289.775
289.738
289.718
289.706
289.698
289.693
289.69
289.689
289.688
289.42
289.417
289.422
289.434
289.455
289.486
289.528
289.58
289.646
289.72
289.785
289.783
289.749
289.73
289.719
289.712
289.708
289.706
289.704
289.704
289.418
289.416
289.421
289.433
289.453
289.484
289.526
289.578
289.644
289.718
289.8
289.806
289.776
289.761
289.754
289.75
289.747
289.746
289.745
289.745
289.421
289.419
289.424
289.436
289.457
289.487
289.528
289.581
289.646
289.72
289.818
289.831
289.806
289.795
289.791
289.789
289.788
289.788
289.787
289.787
289.439
289.437
289.443
289.455
289.474
289.504
289.543
289.593
289.657
289.728
289.837
289.858
289.839
289.834
289.834
289.835
289.836
289.836
289.836
289.836
289.389
289.387
289.392
289.405
289.426
289.457
289.5
289.554
289.623
289.701
289.832
289.847
289.816
289.802
289.796
289.794
289.794
289.794
289.794
289.794
289.58
289.58
289.586
289.596
289.611
289.632
289.66
289.697
289.745
289.798
289.915
289.973
289.971
289.982
289.994
290.006
290.014
290.019
290.021
290.021
289.76
289.766
289.771
289.777
289.783
289.789
289.798
289.811
289.833
289.863
289.802
289.802
289.761
289.74
289.729
289.724
289.722
289.722
289.722
289.721
289.836
289.84
289.844
289.848
289.852
289.855
289.86
289.867
289.881
289.901
290.028
290.134
290.169
290.214
290.256
290.289
290.313
290.328
290.335
290.336
289.86
289.865
289.87
289.874
289.879
289.882
289.887
289.894
289.907
289.924
290.046
290.156
290.193
290.238
290.279
290.312
290.335
290.349
290.356
290.357
289.865
289.872
289.877
289.881
289.884
289.887
289.89
289.896
289.908
289.924
290.017
290.113
290.142
290.183
290.223
290.256
290.281
290.296
290.304
290.305
289.949
289.956
289.96
289.962
289.962
289.96
289.956
289.952
289.953
289.959
290.043
290.147
290.184
290.231
290.275
290.311
290.337
290.353
290.361
290.363
289.906
289.913
289.918
289.921
289.924
289.926
289.928
289.931
289.939
289.95
290.041
290.141
290.169
290.208
290.244
290.274
290.295
290.309
290.315
290.317
289.932
289.939
289.944
289.948
289.951
289.952
289.954
289.955
289.962
289.969
290.066
290.174
290.205
290.246
290.282
290.312
290.333
290.345
290.352
290.353
289.994
290.002
290.006
290.009
290.009
290.008
290.005
290.001
290
290
290.096
290.215
290.255
290.301
290.341
290.373
290.395
290.408
290.415
290.416
290.046
290.057
290.061
290.062
290.059
290.051
290.04
290.027
290.017
290.01
289.922
289.962
289.951
289.955
289.964
289.974
289.982
289.988
289.991
289.991
290.012
290.019
290.022
290.023
290.021
290.016
290.009
290.001
289.995
289.992
290.1
290.212
290.256
290.306
290.348
290.381
290.405
290.419
290.426
290.427
290.124
290.135
290.138
290.137
290.131
290.118
290.101
290.08
290.06
290.042
289.972
290.032
290.037
290.055
290.075
290.094
290.108
290.117
290.122
290.123
290.127
290.135
290.137
290.136
290.131
290.12
290.105
290.085
290.066
290.048
290.151
290.277
290.332
290.39
290.439
290.479
290.506
290.523
290.532
290.534
290.234
290.243
290.245
290.243
290.235
290.221
290.199
290.171
290.141
290.109
290.195
290.336
290.4
290.465
290.521
290.564
290.594
290.613
290.622
290.624
290.321
290.331
290.332
290.328
290.318
290.299
290.272
290.236
290.197
290.154
290.235
290.39
290.46
290.53
290.59
290.635
290.667
290.686
290.696
290.698
290.402
290.411
290.412
290.407
290.395
290.373
290.341
290.299
290.252
290.199
290.273
290.439
290.516
290.593
290.656
290.704
290.737
290.757
290.767
290.77
290.47
290.479
290.479
290.473
290.459
290.434
290.398
290.35
290.295
290.234
290.307
290.484
290.568
290.65
290.716
290.766
290.8
290.821
290.832
290.835
290.572
290.583
290.583
290.575
290.556
290.524
290.478
290.419
290.351
290.276
290.211
290.351
290.414
290.48
290.537
290.582
290.614
290.635
290.646
290.648
290.517
290.524
290.523
290.516
290.499
290.472
290.431
290.378
290.317
290.249
290.312
290.486
290.574
290.659
290.727
290.779
290.814
290.836
290.847
290.85
290.6
290.61
290.609
290.6
290.581
290.548
290.501
290.439
290.367
290.288
290.237
290.384
290.455
290.526
290.587
290.635
290.67
290.691
290.702
290.705
290.564
290.571
290.57
290.562
290.545
290.515
290.472
290.415
290.348
290.274
290.323
290.496
290.586
290.671
290.74
290.793
290.828
290.85
290.862
290.865
290.616
290.624
290.622
290.614
290.596
290.564
290.518
290.457
290.385
290.305
290.343
290.523
290.618
290.707
290.779
290.833
290.87
290.893
290.905
290.908
290.661
290.669
290.667
290.658
290.638
290.604
290.555
290.49
290.413
290.326
290.36
290.545
290.642
290.733
290.806
290.86
290.898
290.921
290.932
290.936
290.7
290.707
290.705
290.695
290.675
290.64
290.588
290.52
290.439
290.348
290.37
290.556
290.657
290.749
290.823
290.879
290.917
290.94
290.952
290.955
290.726
290.733
290.73
290.72
290.698
290.662
290.608
290.538
290.454
290.359
290.381
290.569
290.67
290.763
290.838
290.893
290.931
290.955
290.967
290.97
290.749
290.756
290.753
290.742
290.72
290.683
290.628
290.556
290.47
290.372
290.383
290.57
290.673
290.767
290.842
290.898
290.936
290.96
290.972
290.975
290.75
290.757
290.754
290.743
290.72
290.683
290.629
290.556
290.47
290.372
290.384
290.569
290.671
290.763
290.836
290.891
290.928
290.951
290.963
290.966
290.778
290.784
290.781
290.77
290.746
290.708
290.652
290.577
290.488
290.386
290.388
290.574
290.677
290.77
290.844
290.899
290.936
290.958
290.969
290.973
290.726
290.731
290.728
290.718
290.697
290.661
290.609
290.54
290.457
290.363
290.352
290.522
290.612
290.695
290.761
290.81
290.843
290.863
290.874
290.877
290.683
290.687
290.685
290.675
290.657
290.625
290.579
290.516
290.44
290.351
290.36
290.527
290.611
290.683
290.74
290.782
290.81
290.827
290.835
290.838
290.831
290.836
290.831
290.818
290.795
290.759
290.704
290.631
290.539
290.433
290.387
290.552
290.638
290.71
290.764
290.803
290.83
290.847
290.856
290.859
290.791
290.784
290.773
290.761
290.746
290.725
290.692
290.642
290.574
290.485
290.253
290.412
290.499
290.582
290.652
290.705
290.741
290.763
290.774
290.778
290.638
290.652
290.644
290.623
290.588
290.539
290.474
290.398
290.316
290.239
290.025
290.013
290.013
290.015
290.014
290.015
290.015
290.016
290.016
290.017
290.016
290.017
290.016
290.016
290.015
290.015
290.015
290.015
290.016
290.027
290.192
290.294
290.377
290.462
290.538
290.601
290.647
290.678
290.694
290.699
290.666
290.678
290.673
290.654
290.617
290.562
290.491
290.409
290.324
290.242
290.206
290.342
290.42
290.5
290.573
290.632
290.677
290.706
290.722
290.727
290.639
290.651
290.643
290.622
290.587
290.537
290.473
290.399
290.319
290.243
290.188
290.314
290.388
290.465
290.534
290.591
290.633
290.661
290.676
290.681
290.505
290.515
290.509
290.492
290.465
290.427
290.377
290.32
290.259
290.199
290.176
290.292
290.362
290.433
290.499
290.553
290.594
290.621
290.636
290.64
290.542
290.553
290.547
290.531
290.505
290.466
290.415
290.356
290.289
290.223
290.181
290.304
290.38
290.457
290.527
290.586
290.63
290.658
290.674
290.679
290.484
290.496
290.49
290.475
290.449
290.413
290.366
290.312
290.253
290.196
290.193
290.322
290.404
290.489
290.566
290.631
290.679
290.711
290.728
290.733
290.53
290.542
290.536
290.52
290.493
290.455
290.404
290.345
290.279
290.214
290.178
290.306
290.381
290.462
290.534
290.593
290.637
290.665
290.68
290.685
290.592
290.605
290.601
290.583
290.549
290.499
290.435
290.36
290.283
290.21
290.176
290.305
290.379
290.457
290.528
290.586
290.63
290.658
290.673
290.678
290.597
290.61
290.606
290.587
290.553
290.502
290.437
290.361
290.283
290.209
290.176
290.309
290.385
290.467
290.54
290.601
290.646
290.676
290.692
290.697
290.62
290.633
290.629
290.61
290.573
290.52
290.452
290.374
290.293
290.217
290.183
290.322
290.4
290.485
290.561
290.625
290.672
290.704
290.721
290.726
290.635
290.65
290.646
290.626
290.588
290.533
290.463
290.383
290.3
290.222
290.195
290.337
290.41
290.491
290.565
290.627
290.674
290.705
290.722
290.727
290.62
290.632
290.628
290.609
290.573
290.52
290.452
290.374
290.292
290.215
290.178
290.314
290.39
290.474
290.55
290.614
290.662
290.693
290.71
290.716
290.593
290.607
290.603
290.585
290.549
290.497
290.431
290.355
290.278
290.204
290.155
290.282
290.351
290.428
290.499
290.558
290.602
290.632
290.648
290.653
290.522
290.536
290.533
290.516
290.484
290.437
290.378
290.31
290.241
290.178
290.131
290.248
290.306
290.374
290.437
290.491
290.532
290.56
290.575
290.579
290.433
290.448
290.446
290.431
290.403
290.362
290.312
290.254
290.198
290.146
290.1
290.193
290.224
290.266
290.309
290.348
290.378
290.399
290.41
290.413
290.171
290.182
290.183
290.176
290.163
290.143
290.12
290.096
290.074
290.055
290.199
290.356
290.457
290.567
290.668
290.753
290.816
290.858
290.881
290.888
290.542
290.557
290.553
290.535
290.502
290.452
290.391
290.321
290.25
290.184
290.162
290.297
290.375
290.462
290.542
290.611
290.663
290.698
290.717
290.723
290.35
290.364
290.364
290.352
290.329
290.296
290.255
290.21
290.166
290.124
290.176
290.322
290.407
290.503
290.591
290.666
290.723
290.762
290.782
290.789
290.406
290.421
290.42
290.407
290.381
290.343
290.297
290.245
290.195
290.146
290.174
290.323
290.387
290.464
290.538
290.603
290.653
290.687
290.706
290.711
290.452
290.467
290.465
290.45
290.421
290.378
290.323
290.261
290.199
290.143
290.058
290.137
290.154
290.183
290.211
290.236
290.256
290.27
290.277
290.278
290.346
290.361
290.361
290.35
290.327
290.293
290.251
290.203
290.158
290.116
290.028
290.09
290.095
290.112
290.131
290.15
290.165
290.176
290.181
290.182
290.289
290.305
290.305
290.295
290.274
290.243
290.205
290.164
290.126
290.091
290.016
290.074
290.072
290.082
290.095
290.11
290.122
290.13
290.134
290.135
290.3
290.317
290.318
290.307
290.286
290.254
290.216
290.174
290.136
290.101
290.049
290.128
290.114
290.116
290.123
290.133
290.142
290.149
290.152
290.152
290.335
290.353
290.352
290.338
290.311
290.271
290.223
290.17
290.122
290.083
290.015
290.078
290.079
290.093
290.11
290.127
290.141
290.151
290.156
290.157
290.313
290.331
290.331
290.32
290.297
290.262
290.221
290.176
290.134
290.097
290.007
290.061
290.054
290.06
290.07
290.081
290.091
290.098
290.101
290.102
290.396
290.413
290.412
290.397
290.369
290.327
290.276
290.219
290.165
290.118
290.015
290.081
290.118
290.174
290.24
290.308
290.37
290.42
290.452
290.467
289.505
289.503
289.524
289.561
289.609
289.666
289.729
289.797
289.861
289.916
290.026
290.098
290.154
290.229
290.311
290.393
290.466
290.523
290.56
290.575
289.604
289.603
289.624
289.658
289.701
289.749
289.801
289.853
289.9
289.938
289.871
289.837
289.817
289.814
289.828
289.852
289.883
289.912
289.933
289.943
289.127
289.118
289.147
289.199
289.271
289.361
289.463
289.574
289.682
289.778
289.911
289.922
289.943
289.984
290.04
290.103
290.164
290.214
290.246
290.26
289.432
289.436
289.456
289.488
289.531
289.585
289.646
289.713
289.778
289.836
289.882
289.925
289.945
289.975
290.017
290.065
290.114
290.155
290.181
290.191
289.885
289.894
289.901
289.915
289.93
289.949
289.965
289.987
290.017
290.064
289.878
289.97
290.045
290.111
290.162
290.199
290.225
290.242
290.25
290.253
289.866
289.868
289.871
289.876
289.883
289.891
289.897
289.903
289.91
289.92
290.042
290.131
290.174
290.23
290.293
290.354
290.408
290.449
290.474
290.485
289.546
289.544
289.568
289.607
289.658
289.716
289.776
289.836
289.889
289.934
289.947
289.987
289.995
290.023
290.066
290.118
290.169
290.214
290.243
290.256
289.328
289.323
289.352
289.4
289.461
289.533
289.607
289.683
289.756
289.823
289.786
289.734
289.69
289.671
289.673
289.693
289.721
289.75
289.771
289.782
288.874
288.86
288.895
288.958
289.047
289.158
289.285
289.423
289.561
289.687
289.914
289.937
289.937
289.961
290.006
290.062
290.118
290.167
290.2
290.215
289.411
289.408
289.435
289.48
289.539
289.608
289.681
289.754
289.821
289.877
289.876
289.878
289.873
289.889
289.925
289.976
290.036
290.091
290.129
290.148
289.262
289.249
289.271
289.313
289.371
289.44
289.512
289.583
289.645
289.699
289.858
289.765
289.677
289.624
289.602
289.606
289.625
289.652
289.673
289.685
289.525
289.506
289.522
289.553
289.608
289.673
289.739
289.792
289.818
289.822
289.746
289.686
289.679
289.703
289.742
289.786
289.825
289.858
289.879
289.89
289.276
289.273
289.299
289.342
289.404
289.479
289.558
289.638
289.715
289.789
289.852
289.821
289.79
289.782
289.793
289.82
289.852
289.884
289.905
289.916
289.099
289.098
289.129
289.185
289.264
289.362
289.468
289.574
289.673
289.759
289.675
289.55
289.456
289.369
289.303
289.264
289.252
289.26
289.272
289.281
289.334
289.322
289.336
289.37
289.429
289.507
289.592
289.683
289.783
289.889
289.605
289.544
289.498
289.445
289.386
289.332
289.303
289.287
289.281
289.281
289.688
289.676
289.672
289.679
289.696
289.723
289.751
289.774
289.795
289.824
289.798
289.702
289.63
289.575
289.538
289.516
289.507
289.507
289.509
289.51
288.989
288.995
289.021
289.077
289.164
289.273
289.391
289.511
289.626
289.735
289.838
289.829
289.762
289.708
289.677
289.669
289.681
289.703
289.721
289.73
289.787
289.79
289.798
289.818
289.853
289.896
289.938
289.981
290.031
290.09
289.847
289.856
289.842
289.822
289.796
289.772
289.759
289.752
289.75
289.749
289.89
289.884
289.877
289.869
289.863
289.859
289.855
289.848
289.841
289.841
289.848
289.757
289.687
289.643
289.624
289.633
289.664
289.71
289.745
289.766
289.215
289.185
289.207
289.258
289.343
289.448
289.558
289.652
289.705
289.737
289.634
289.372
289.299
289.261
289.247
289.271
289.322
289.392
289.447
289.482
289.106
289.059
289.082
289.132
289.212
289.305
289.397
289.483
289.571
289.682
289.829
289.793
289.772
289.764
289.771
289.79
289.823
289.866
289.903
289.925
289.481
289.471
289.491
289.536
289.599
289.671
289.733
289.784
289.827
289.882
289.926
289.918
289.858
289.814
289.763
289.719
289.704
289.702
289.707
289.708
289.605
289.566
289.56
289.581
289.628
289.699
289.769
289.824
289.839
289.806
289.835
289.734
289.692
289.646
289.596
289.553
289.527
289.525
289.533
289.545
289.532
289.497
289.511
289.541
289.595
289.655
289.707
289.746
289.774
289.828
289.804
289.746
289.678
289.589
289.498
289.416
289.358
289.32
289.302
289.297
289.316
289.311
289.309
289.324
289.361
289.421
289.494
289.573
289.66
289.751
289.587
289.503
289.432
289.37
289.306
289.25
289.217
289.198
289.19
289.188
289.375
289.361
289.365
289.384
289.422
289.481
289.553
289.632
289.706
289.737
289.745
289.623
289.553
289.483
289.416
289.358
289.319
289.302
289.298
289.302
289.47
289.446
289.455
289.476
289.508
289.543
289.573
289.598
289.623
289.676
289.852
289.807
289.724
289.627
289.534
289.453
289.395
289.357
289.337
289.33
289.351
289.355
289.36
289.377
289.413
289.467
289.536
289.614
289.697
289.784
289.739
289.617
289.564
289.505
289.447
289.396
289.359
289.345
289.343
289.35
289.328
289.288
289.291
289.308
289.343
289.384
289.427
289.471
289.516
289.59
289.768
289.682
289.59
289.484
289.384
289.299
289.236
289.194
289.172
289.165
289.031
289.017
289.028
289.059
289.113
289.19
289.286
289.396
289.511
289.629
289.58
289.424
289.348
289.267
289.187
289.117
289.064
289.039
289.031
289.038
289.127
289.081
289.085
289.102
289.143
289.191
289.24
289.287
289.332
289.401
289.68
289.554
289.439
289.318
289.214
289.13
289.076
289.043
289.028
289.027
288.967
288.941
288.946
288.969
289.014
289.086
289.182
289.299
289.433
289.571
289.236
289.116
289.048
288.986
288.933
288.891
288.866
288.852
288.847
288.848
289.07
289.046
289.046
289.064
289.106
289.176
289.266
289.376
289.497
289.611
289.612
289.475
289.38
289.291
289.211
289.146
289.098
289.072
289.061
289.062
289.287
289.261
289.265
289.274
289.294
289.319
289.347
289.38
289.421
289.488
289.741
289.647
289.544
289.429
289.319
289.223
289.152
289.104
289.078
289.07
289.007
288.999
289.013
289.045
289.101
289.181
289.282
289.397
289.52
289.637
289.584
289.448
289.361
289.272
289.187
289.11
289.05
289.017
289.003
289.005
289.165
289.127
289.13
289.145
289.181
289.224
289.269
289.314
289.357
289.418
289.7
289.589
289.485
289.382
289.293
289.22
289.172
289.143
289.131
289.129
289.142
289.126
289.134
289.157
289.195
289.25
289.323
289.411
289.514
289.62
289.337
289.242
289.173
289.107
289.046
288.996
288.964
288.946
288.939
288.937
289.06
289.043
289.051
289.077
289.125
289.198
289.293
289.406
289.53
289.642
289.589
289.45
289.343
289.244
289.159
289.088
289.036
289.003
288.988
288.985
289.229
289.208
289.211
289.22
289.237
289.257
289.28
289.307
289.342
289.397
289.719
289.619
289.52
289.426
289.345
289.28
289.235
289.207
289.194
289.191
289.119
289.106
289.113
289.136
289.176
289.238
289.321
289.422
289.536
289.648
289.372
289.297
289.24
289.192
289.152
289.12
289.102
289.091
289.087
289.087
289.12
289.104
289.108
289.132
289.178
289.249
289.342
289.452
289.575
289.687
289.647
289.53
289.444
289.363
289.292
289.232
289.188
289.161
289.149
289.147
289.421
289.403
289.404
289.408
289.421
289.437
289.454
289.473
289.498
289.544
289.756
289.666
289.563
289.451
289.344
289.253
289.183
289.136
289.111
289.102
289.084
289.083
289.096
289.125
289.175
289.244
289.33
289.429
289.537
289.641
289.614
289.519
289.455
289.385
289.31
289.236
289.177
289.15
289.14
289.147
289.239
289.192
289.192
289.203
289.247
289.298
289.35
289.398
289.431
289.468
289.68
289.6
289.514
289.427
289.35
289.288
289.253
289.234
289.228
289.228
289.198
289.174
289.16
289.16
289.179
289.219
289.272
289.33
289.397
289.48
289.74
289.636
289.521
289.408
289.31
289.233
289.177
289.142
289.123
289.119
289.213
289.205
289.212
289.222
289.244
289.284
289.346
289.43
289.532
289.638
289.362
289.287
289.226
289.176
289.134
289.101
289.08
289.068
289.063
289.063
289.161
289.147
289.157
289.182
289.222
289.281
289.359
289.456
289.569
289.676
289.611
289.507
289.412
289.331
289.262
289.203
289.156
289.125
289.106
289.101
289.44
289.425
289.427
289.428
289.435
289.441
289.445
289.454
289.468
289.495
289.762
289.681
289.595
289.51
289.431
289.364
289.317
289.286
289.27
289.266
289.118
289.112
289.121
289.146
289.192
289.258
289.343
289.443
289.555
289.661
289.404
289.348
289.285
289.233
289.184
289.143
289.118
289.103
289.097
289.095
289.133
289.121
289.131
289.158
289.204
289.272
289.357
289.458
289.568
289.67
289.626
289.534
289.457
289.389
289.332
289.282
289.244
289.222
289.211
289.21
289.548
289.529
289.529
289.53
289.538
289.544
289.547
289.548
289.553
289.572
289.759
289.674
289.576
289.477
289.384
289.305
289.246
289.207
289.186
289.18
289.203
289.202
289.212
289.236
289.28
289.34
289.412
289.49
289.575
289.651
289.369
289.336
289.263
289.188
289.105
289.032
288.99
288.967
288.959
288.957
289.162
289.129
289.125
289.144
289.187
289.258
289.343
289.441
289.54
289.629
289.4
289.341
289.29
289.242
289.202
289.166
289.144
289.136
289.134
289.135
289.271
289.255
289.267
289.287
289.319
289.361
289.417
289.493
289.591
289.7
289.663
289.6
289.518
289.448
289.387
289.333
289.29
289.261
289.244
289.239
289.638
289.631
289.63
289.626
289.623
289.619
289.612
289.607
289.608
289.615
289.836
289.79
289.728
289.665
289.606
289.555
289.518
289.494
289.481
289.477
289.312
289.31
289.315
289.334
289.371
289.422
289.486
289.556
289.636
289.711
289.56
289.561
289.518
289.479
289.436
289.398
289.378
289.368
289.366
289.366
289.608
289.596
289.597
289.607
289.627
289.657
289.691
289.728
289.764
289.787
289.594
289.538
289.497
289.453
289.411
289.371
289.343
289.329
289.322
289.321
289.306
289.29
289.307
289.336
289.377
289.427
289.49
289.568
289.66
289.756
289.713
289.658
289.586
289.523
289.47
289.425
289.39
289.37
289.359
289.357
289.689
289.68
289.679
289.676
289.677
289.676
289.673
289.67
289.672
289.683
289.853
289.8
289.726
289.651
289.584
289.528
289.488
289.461
289.447
289.442
289.588
289.588
289.593
289.605
289.625
289.652
289.685
289.723
289.768
289.805
289.634
289.635
289.597
289.561
289.517
289.477
289.456
289.446
289.444
289.443
289.669
289.645
289.638
289.641
289.653
289.676
289.705
289.739
289.773
289.802
289.71
289.699
289.689
289.68
289.67
289.66
289.655
289.656
289.659
289.662
289.562
289.545
289.557
289.576
289.6
289.626
289.659
289.704
289.761
289.826
289.791
289.777
289.723
289.678
289.639
289.604
289.575
289.555
289.544
289.541
289.869
289.86
289.857
289.849
289.843
289.833
289.821
289.808
289.798
289.793
289.89
289.843
289.78
289.714
289.651
289.597
289.558
289.531
289.517
289.513
289.612
289.606
289.593
289.585
289.589
289.607
289.633
289.663
289.696
289.721
289.858
289.826
289.768
289.712
289.662
289.62
289.586
289.563
289.549
289.543
289.635
289.643
289.644
289.644
289.65
289.662
289.683
289.714
289.752
289.795
289.663
289.664
289.651
289.645
289.634
289.619
289.608
289.601
289.597
289.596
289.425
289.422
289.432
289.455
289.491
289.541
289.601
289.669
289.741
289.799
289.744
289.717
289.685
289.657
289.629
289.602
289.58
289.569
289.566
289.569
289.873
289.848
289.847
289.848
289.858
289.864
289.858
289.842
289.82
289.808
289.881
289.838
289.797
289.751
289.707
289.663
289.63