/*--------------------------------*- C++ -*----------------------------------*\
| =========                 |                                                 |
| \\      /  F ield         | OpenFOAM: The Open Source CFD Toolbox           |
|  \\    /   O peration     | Version:  v2006                                 |
|   \\  /    A nd           | Website:  www.openfoam.com                      |
|    \\/     M anipulation  |                                                 |
\*---------------------------------------------------------------------------*/
FoamFile
{
    version     2.0;
    format      ascii;
    class       volVectorField;
    location    "0.1";
    object      U;
}
// * * * * * * * * * * * * * * * * * * * * * * * * * * * * * * * * * * * * * //

dimensions      [0 1 -1 0 0 0 0];


internalField   nonuniform List<vector> 
38348
(
(0.0535175 3.16102e-05 -8.32668e-15)
(0.0535506 2.23125e-05 1.08538e-15)
(0.0472136 4.73049e-06 -1.17474e-15)
(0.0472208 0.000211209 0)
(0.0473382 0.000114964 5.29535e-16)
(0.0472826 -6.85163e-05 -4.6164e-16)
(0.0472775 -0.000114594 4.46499e-16)
(0.0472371 -0.000246867 -2.09194e-16)
(0.0472464 -0.000231563 0)
(0.047244 -0.000287881 2.56479e-17)
(0.0472491 -0.000304994 -1.92176e-17)
(0.0472492 -0.000346357 2.28338e-26)
(0.0472497 -0.000385744 -3.2021e-18)
(0.0472499 -0.000425998 1.60108e-18)
(0.0472501 -0.000466885 1.60101e-18)
(0.0472502 -0.000508682 -1.60094e-18)
(0.04725 -0.000550698 0)
(0.04725 -0.000592926 0)
(0.0472496 -0.000635025 0)
(0.0472494 -0.00067703 1.6008e-18)
(0.0472491 -0.000718787 -1.60083e-18)
(0.0472488 -0.000760273 0)
(0.0472484 -0.000801713 0)
(0.047248 -0.000842913 0)
(0.0472476 -0.000883813 0)
(0.0472471 -0.000924395 0)
(0.0472467 -0.000964826 2.00073e-19)
(0.0472462 -0.00100504 0)
(0.0472456 -0.00104519 0)
(0.0472452 -0.00108528 0)
(0.0472446 -0.00112531 0)
(0.0472439 -0.00116518 0)
(0.0472433 -0.00120478 0)
(0.0472426 -0.0012441 0)
(0.0472418 -0.00128301 0)
(0.0472411 -0.00132152 0)
(0.0472403 -0.00135961 0)
(0.0472394 -0.00139724 0)
(0.0472385 -0.00143436 0)
(0.0472376 -0.00147096 0)
(0.0472367 -0.00150702 0)
(0.0472358 -0.00154254 0)
(0.0472347 -0.00157752 0)
(0.0472338 -0.00161198 0)
(0.0472327 -0.00164595 0)
(0.0472317 -0.00167947 0)
(0.0472307 -0.00171267 0)
(0.0472298 -0.00174567 0)
(0.0472288 -0.00177856 0)
(0.0472278 -0.00181138 0)
(0.0472268 -0.0018442 0)
(0.0472257 -0.00187704 0)
(0.0472246 -0.00190985 0)
(0.0472234 -0.00194237 0)
(0.047222 -0.00197422 0)
(0.0472207 -0.00200504 0)
(0.0472195 -0.00203474 0)
(0.0472183 -0.00206353 0)
(0.0472171 -0.00209163 0)
(0.0472159 -0.00211922 0)
(0.0472146 -0.00214638 0)
(0.0472134 -0.00217315 0)
(0.0472121 -0.00219955 0)
(0.0472108 -0.00222555 0)
(0.0472094 -0.00225111 0)
(0.047208 -0.00227618 0)
(0.0472066 -0.00230072 0)
(0.0472051 -0.0023247 0)
(0.0472036 -0.00234809 0)
(0.0472021 -0.00237087 0)
(0.0472006 -0.00239302 0)
(0.0471991 -0.00241454 0)
(0.0471976 -0.0024354 0)
(0.047196 -0.0024556 0)
(0.0471944 -0.00247512 0)
(0.0471928 -0.00249397 0)
(0.0471912 -0.00251214 0)
(0.0471896 -0.00252961 0)
(0.0471879 -0.00254637 0)
(0.0471863 -0.0025624 0)
(0.0471846 -0.00257768 0)
(0.0471829 -0.00259218 0)
(0.0471812 -0.00260586 0)
(0.0471794 -0.00261872 0)
(0.0471777 -0.00263075 0)
(0.0471759 -0.0026419 0)
(0.0471741 -0.00265217 0)
(0.0471723 -0.00266153 0)
(0.0471705 -0.00266995 0)
(0.0471686 -0.00267741 0)
(0.0471668 -0.0026839 0)
(0.047165 -0.0026894 0)
(0.0471631 -0.0026939 0)
(0.0471612 -0.00269737 0)
(0.0471593 -0.0026998 0)
(0.0471575 -0.00270116 0)
(0.0471556 -0.00270145 0)
(0.0471537 -0.00270063 0)
(0.0471518 -0.0026987 0)
(0.0471499 -0.00269564 0)
(0.047148 -0.00269144 0)
(0.0471461 -0.0026861 0)
(0.0471442 -0.0026796 0)
(0.0471424 -0.00267193 0)
(0.0471405 -0.00266309 0)
(0.0471386 -0.00265307 0)
(0.0471368 -0.00264186 0)
(0.047135 -0.00262945 0)
(0.0471331 -0.00261584 0)
(0.0471313 -0.00260102 0)
(0.0471295 -0.00258499 0)
(0.0471277 -0.00256772 0)
(0.0471259 -0.0025492 0)
(0.0471242 -0.0025294 0)
(0.0471225 -0.00250831 0)
(0.0471207 -0.00248593 0)
(0.047119 -0.00246224 0)
(0.0471173 -0.00243722 0)
(0.0471156 -0.00241086 0)
(0.047114 -0.00238317 0)
(0.0471123 -0.00235414 0)
(0.0471108 -0.00232377 0)
(0.0471092 -0.00229208 0)
(0.0471077 -0.0022591 0)
(0.0471063 -0.00222484 0)
(0.0471049 -0.00218932 0)
(0.0471035 -0.00215259 0)
(0.0471022 -0.00211466 0)
(0.0471009 -0.00207557 0)
(0.0470997 -0.00203535 0)
(0.0470986 -0.00199406 0)
(0.0470975 -0.00195174 0)
(0.0470965 -0.00190845 0)
(0.0470956 -0.00186426 0)
(0.0470947 -0.00181922 1.9999e-19)
(0.0470939 -0.00177347 -1.99995e-19)
(0.0470932 -0.00172702 0)
(0.0470926 -0.00168003 0)
(0.0470921 -0.00163261 0)
(0.0470916 -0.00158493 0)
(0.0470913 -0.00153714 0)
(0.0470912 -0.00148944 0)
(0.0470911 -0.00144209 0)
(0.0470911 -0.00139535 0)
(0.0470913 -0.00134951 0)
(0.0470917 -0.00130494 0)
(0.0470923 -0.00126204 0)
(0.047093 -0.00122137 0)
(0.0470939 -0.00118348 0)
(0.0470951 -0.00114901 0)
(0.0470965 -0.0011188 0)
(0.0470983 -0.0010939 0)
(0.0471004 -0.00107569 0)
(0.0471033 -0.00106611 0)
(0.0471074 -0.00106833 -1.60056e-18)
(0.0471133 -0.00108651 6.40367e-18)
(0.0471159 -0.00110886 -2.17919e-16)
(0.0471415 -0.00121974 3.11282e-16)
(0.0471739 -0.00132033 3.13563e-16)
(0.0473333 -0.00176952 -1.11507e-16)
(0.0476 -0.0024286 1.84328e-15)
(0.0485082 -0.0042223 2.11011e-15)
(0.0500881 -0.00779966 -5.41008e-15)
(0.0504267 -0.0109137 5.0791e-15)
(0.0487225 -0.0114709 0)
(0.0454959 -0.0114563 0)
(0.0410041 -0.0108377 0)
(0.0356305 -0.00969435 -1.64217e-15)
(0.0297198 -0.00819188 5.18782e-17)
(0.0235541 -0.00646413 -1.81966e-24)
(0.0171913 -0.00461822 1.52248e-15)
(0.0105818 -0.00273713 -3.56998e-16)
(0.00378937 -0.000889287 2.33344e-16)
(0.00328792 -1.0168e-05 -8.34894e-16)
(0.00966297 -7.38547e-05 1.37434e-15)
(0.0163072 -0.000211646 -2.90047e-15)
(0.0231828 -0.000428286 1.88637e-16)
(0.0302943 -0.000727992 9.08966e-15)
(0.0375142 -0.00110587 -6.22245e-15)
(0.0445215 -0.00154398 0)
(0.0507462 -0.00202735 1.12873e-14)
(0.0554904 -0.00252895 -1.0328e-14)
(0.0581811 -0.00306133 1.2166e-15)
(0.0532202 -0.0025606 -1.08843e-15)
(0.0490997 -0.00219123 0)
(0.043088 -0.0017911 4.3365e-17)
(0.0360992 -0.00140523 0)
(0.0290235 -0.00104879 -2.43783e-17)
(0.0224478 -0.000737808 9.56626e-16)
(0.0165623 -0.000491642 -9.56033e-16)
(0.0113325 -0.000297226 9.01532e-17)
(0.00659006 -0.000149341 -2.47641e-16)
(0.00221727 -4.27492e-05 1.03488e-16)
(0.00228438 2.73642e-06 2.79092e-18)
(0.00667468 5.26814e-06 0)
(0.0113127 -1.36675e-05 0)
(0.016327 -4.98199e-05 0)
(0.0218845 -0.00011272 2.09965e-17)
(0.0280614 -0.000206479 -1.47197e-16)
(0.0347342 -0.00033997 1.62592e-16)
(0.0413921 -0.000526742 1.14607e-16)
(0.047214 -0.000760609 -3.9103e-26)
(0.051308 -0.00103426 -1.96889e-16)
(0.0501181 -0.000583313 -2.60142e-16)
(0.0460331 -0.000453155 0)
(0.0402912 -0.000352825 3.08967e-16)
(0.0337736 -0.000268862 -3.31472e-16)
(0.0272671 -0.000212099 0)
(0.0212548 -0.000177543 8.64358e-17)
(0.0158651 -0.000140686 -4.19083e-17)
(0.0110047 -0.000104887 0)
(0.00649875 -6.91149e-05 -1.79971e-17)
(0.00222659 -2.27175e-05 0)
(0.0021205 -5.8221e-06 0)
(0.00623586 8.65968e-06 1.48158e-16)
(0.0106126 5.66334e-05 -1.44616e-16)
(0.0153505 9.25517e-05 3.86337e-17)
(0.0206074 9.41651e-05 -4.00463e-16)
(0.0264814 7.00005e-05 3.21294e-16)
(0.0328538 2.49914e-05 0)
(0.0392689 -4.5709e-05 -5.67523e-16)
(0.044954 -0.000148876 5.3581e-16)
(0.0490524 -0.000273515 2.52011e-16)
(0.0483027 -0.000502551 -5.09732e-16)
(0.0442397 -0.000448842 0)
(0.0386188 -0.000393778 -1.86515e-17)
(0.0322909 -0.000349346 -3.18312e-16)
(0.0260183 -0.000303705 3.29143e-16)
(0.0202463 -0.000256882 -4.1099e-17)
(0.015077 -0.000211023 1.98527e-17)
(0.0104192 -0.000150548 -1.86073e-17)
(0.00612494 -8.83041e-05 0)
(0.00208447 -2.76763e-05 0)
(0.00214917 5.85603e-07 0)
(0.0062229 -1.24703e-05 0)
(0.0104989 -3.07923e-05 1.83079e-17)
(0.0151158 -4.21338e-05 -1.95486e-17)
(0.0202261 -7.94873e-05 2.00079e-16)
(0.025934 -0.000123204 -1.62307e-16)
(0.0321386 -0.000170702 0)
(0.0383902 -0.000238374 -1.38528e-16)
(0.0439396 -0.00030773 1.43367e-16)
(0.0479434 -0.000386147 2.53992e-16)
(0.0475584 -0.00023005 -1.60107e-17)
(0.0436032 -0.000178123 -2.55825e-17)
(0.0381051 -0.000144099 -3.90648e-25)
(0.0319121 -0.000119669 0)
(0.0257645 -0.00010477 5.13664e-18)
(0.0201069 -9.41813e-05 -2.56883e-18)
(0.0150447 -8.16936e-05 0)
(0.0104556 -6.4643e-05 0)
(0.00620155 -4.21693e-05 2.11219e-18)
(0.00214838 -1.34338e-05 -3.40145e-19)
(0.00208414 -8.27868e-07 3.4077e-19)
(0.00605157 1.16179e-05 -2.11448e-18)
(0.0102405 3.44505e-05 5.79939e-19)
(0.0147719 5.65718e-05 0)
(0.019776 6.55552e-05 5.13713e-18)
(0.0253735 6.15891e-05 -5.13543e-18)
(0.0314632 4.26117e-05 0)
(0.037607 7.72222e-06 -1.16838e-17)
(0.0430685 -4.25226e-05 1.28099e-17)
(0.0470237 -0.000105711 1.6024e-17)
(0.0466251 -0.000199728 1.28602e-16)
(0.0427136 -0.000169047 -1.32676e-16)
(0.037297 -0.000149149 2.3444e-18)
(0.0312072 -0.000129942 0)
(0.0251699 -0.000118018 0)
(0.0196182 -0.000107902 0)
(0.0146527 -9.49388e-05 0)
(0.0101539 -7.60215e-05 -1.16326e-18)
(0.00599469 -5.04962e-05 0)
(0.00205971 -1.68516e-05 0)
(0.00205696 -8.63657e-06 0)
(0.00597057 -6.23559e-06 0)
(0.0100976 1.70494e-05 5.81919e-19)
(0.0145578 3.10033e-05 0)
(0.0194812 3.11537e-05 0)
(0.0249881 2.09549e-05 0)
(0.0309795 -1.94374e-06 0)
(0.0370238 -3.64885e-05 0)
(0.0424007 -8.27529e-05 0)
(0.0462852 -0.000137481 0)
(0.0459674 -0.000155003 0)
(0.0421202 -0.000123575 0)
(0.0367803 -0.000104182 0)
(0.0307801 -8.90637e-05 0)
(0.0248324 -8.17043e-05 0)
(0.0193646 -7.7176e-05 0)
(0.0144743 -7.0304e-05 0)
(0.010042 -5.83161e-05 0)
(0.00593877 -4.02573e-05 0)
(0.0020462 -1.34585e-05 0)
(0.00203817 -9.43773e-06 0)
(0.00590335 -8.96235e-06 0)
(0.00997081 1.31199e-05 0)
(0.0143627 2.87759e-05 0)
(0.0192094 3.3551e-05 0)
(0.0246317 3.00784e-05 0)
(0.030534 1.59834e-05 0)
(0.0364921 -9.20667e-06 0)
(0.0417956 -4.52387e-05 0)
(0.0456272 -8.90766e-05 0)
(0.0452535 -5.52851e-05 0)
(0.0414526 -2.14913e-05 0)
(0.0361794 -3.84931e-06 0)
(0.0302645 1.4148e-05 0)
(0.0244052 1.96401e-05 0)
(0.0190216 1.70708e-05 0)
(0.0142074 1.11771e-05 0)
(0.00984502 5.09882e-06 0)
(0.00581106 2.14751e-07 0)
(0.00199538 -8.84075e-08 0)
(0.00199334 -1.58042e-05 0)
(0.00579341 -3.75382e-05 0)
(0.00980217 -3.85399e-05 0)
(0.0141333 -3.91529e-05 0)
(0.0189116 -4.02485e-05 0)
(0.0242547 -4.31853e-05 0)
(0.0300696 -5.15252e-05 0)
(0.035939 -6.78163e-05 0)
(0.041166 -9.22267e-05 0)
(0.0449443 -0.000123175 0)
(0.0446461 -4.35269e-05 0)
(0.0409034 -1.16779e-05 0)
(0.0357124 4.3204e-06 0)
(0.029886 2.00101e-05 0)
(0.0241136 2.47303e-05 0)
(0.018809 2.13717e-05 0)
(0.0140637 1.4747e-05 0)
(0.00976021 7.85176e-06 0)
(0.00577351 2.2139e-06 0)
(0.00198943 5.0528e-07 0)
(0.0019765 -1.60553e-05 0)
(0.00573619 -3.31312e-05 0)
(0.00969599 -2.3463e-05 0)
(0.0139694 -1.32872e-05 0)
(0.0186808 -5.62632e-06 0)
(0.0239473 -4.08227e-07 0)
(0.0296782 -2.36497e-06 0)
(0.0354618 -1.35524e-05 0)
(0.0406105 -3.46277e-05 0)
(0.04433 -6.37629e-05 0)
(0.0439779 2.38728e-05 0)
(0.0402854 5.66307e-05 0)
(0.0351684 6.78589e-05 0)
(0.0294275 7.91628e-05 0)
(0.0237418 7.65137e-05 0)
(0.0185173 6.37238e-05 0)
(0.0138428 4.66815e-05 0)
(0.0096024 2.9406e-05 0)
(0.00567505 1.41194e-05 0)
(0.00195213 4.35493e-06 0)
(0.00189172 -1.97502e-05 0)
(0.00553817 -3.42042e-05 0)
(0.00941026 -8.85689e-06 0)
(0.0136055 1.55877e-05 0)
(0.0182376 3.34685e-05 0)
(0.0234197 4.69999e-05 0)
(0.0290645 5.05207e-05 0)
(0.0347708 4.09209e-05 0)
(0.0398622 1.77076e-05 0)
(0.0435542 -1.71334e-05 0)
(0.0432576 -0.00014131 0)
(0.0395999 -0.000119872 0)
(0.0345427 -0.000105328 0)
(0.0288786 -8.99661e-05 0)
(0.0232753 -7.8371e-05 0)
(0.0181318 -6.74727e-05 0)
(0.0135339 -5.51166e-05 0)
(0.00936887 -4.03889e-05 0)
(0.00552157 -2.49157e-05 0)
(0.00189089 -7.98393e-06 0)
(0.00191025 -1.06467e-05 0)
(0.00555277 -2.29704e-05 0)
(0.00939337 -1.90763e-05 0)
(0.0135386 -1.38455e-05 0)
(0.0181075 -1.04356e-05 0)
(0.0232146 -1.08446e-05 0)
(0.0287744 -1.85111e-05 0)
(0.0343901 -3.5208e-05 0)
(0.039395 -6.13586e-05 0)
(0.0430167 -9.63272e-05 0)
(0.0427278 -0.000107871 0)
(0.0391408 -8.0579e-05 0)
(0.0341715 -6.35266e-05 0)
(0.0285969 -4.65182e-05 0)
(0.0230768 -3.66091e-05 0)
(0.0180059 -3.08528e-05 0)
(0.0134692 -2.59575e-05 0)
(0.00935213 -2.01916e-05 0)
(0.00553474 -1.36582e-05 0)
(0.00190794 -4.35727e-06 0)
(0.00188945 -9.58101e-06 0)
(0.00548288 -1.45856e-05 0)
(0.00926673 2.51376e-06 0)
(0.0133487 2.18922e-05 0)
(0.0178482 3.61574e-05 0)
(0.0228797 4.39716e-05 0)
(0.028359 4.07577e-05 0)
(0.0338945 2.42927e-05 0)
(0.0388274 -5.28638e-06 0)
(0.0423972 -4.58196e-05 0)
(0.0420441 -8.07133e-05 0)
(0.0384971 -5.08498e-05 0)
(0.0335942 -3.46548e-05 0)
(0.0281004 -2.17867e-05 0)
(0.0226668 -1.68747e-05 0)
(0.0176781 -1.54219e-05 0)
(0.0132159 -1.28842e-05 0)
(0.0091678 -9.04323e-06 0)
(0.00541802 -5.66744e-06 0)
(0.00186322 -1.13774e-06 0)
(0.00185946 -3.05516e-06 0)
(0.00539576 -7.76431e-06 0)
(0.00912034 -9.23174e-06 0)
(0.0131397 -4.0582e-06 0)
(0.0175684 1.27337e-06 0)
(0.0225178 1.67324e-06 0)
(0.0279062 -5.57847e-06 0)
(0.0333523 -2.16426e-05 0)
(0.0382099 -4.67321e-05 0)
(0.0417298 -7.96376e-05 0)
(0.0413845 -3.1086e-05 0)
(0.0378951 -4.00341e-08 0)
(0.033074 1.32181e-05 0)
(0.0276708 2.57975e-05 0)
(0.0223245 2.82173e-05 0)
(0.0174148 2.33961e-05 0)
(0.0130226 1.5824e-05 0)
(0.009037 8.65107e-06 0)
(0.00534349 3.28931e-06 0)
(0.00183896 9.16606e-07 0)
(0.00181819 -1.43291e-05 0)
(0.00529025 -2.81725e-05 0)
(0.00895336 -1.65573e-05 0)
(0.0129074 -4.44394e-06 0)
(0.0172638 4.21953e-06 0)
(0.0221314 8.95288e-06 0)
(0.0274313 5.55729e-06 0)
(0.032788 -7.91178e-06 0)
(0.0375674 -3.12976e-05 0)
(0.0410322 -6.35995e-05 0)
(0.0406895 -4.32688e-05 0)
(0.0372557 -1.33883e-05 0)
(0.0325158 -3.28639e-08 0)
(0.0272051 1.12815e-05 0)
(0.0219516 1.43761e-05 0)
(0.0171262 1.18148e-05 0)
(0.0128071 7.30139e-06 0)
(0.00888629 3.26227e-06 0)
(0.00525338 5.34885e-07 0)
(0.0018076 1.24781e-07 0)
(0.00179017 -4.98276e-06 0)
(0.00520385 -9.61648e-06 0)
(0.00880342 -4.29681e-06 0)
(0.0126883 5.77763e-06 0)
(0.0169684 1.46691e-05 0)
(0.0217511 1.97588e-05 0)
(0.0269587 1.7868e-05 0)
(0.0322224 7.36615e-06 0)
(0.0369185 -1.21999e-05 0)
(0.040324 -4.17439e-05 0)
(0.0399469 -2.97192e-05 0)
(0.0365729 5.80496e-07 0)
(0.0319195 1.33707e-05 0)
(0.0267025 2.32756e-05 0)
(0.0215408 2.52633e-05 0)
(0.0168005 2.1063e-05 0)
(0.0125594 1.43926e-05 0)
(0.00871063 8.32141e-06 0)
(0.00514558 4.2188e-06 0)
(0.00176786 1.31852e-06 0)
(0.0017494 -6.5998e-06 0)
(0.00509527 -1.32214e-05 0)
(0.00862851 -7.52309e-06 0)
(0.0124429 2.06009e-06 0)
(0.0166457 9.95423e-06 0)
(0.0213427 1.35509e-05 0)
(0.026457 9.34335e-06 0)
(0.0316251 -4.15308e-06 0)
(0.0362341 -2.67752e-05 0)
(0.0395753 -5.86849e-05 0)
(0.0392034 -5.25071e-05 0)
(0.0358958 -1.72734e-05 0)
(0.0313295 1.06656e-06 0)
(0.0262096 1.49365e-05 0)
(0.0211428 1.93828e-05 0)
(0.0164887 1.67851e-05 0)
(0.0123233 1.12761e-05 0)
(0.00854243 6.04601e-06 0)
(0.00504128 2.5522e-06 0)
(0.00172886 8.13185e-07 0)
(0.00171191 -1.06138e-05 0)
(0.00499333 -2.22407e-05 0)
(0.00846216 -1.6347e-05 0)
(0.012208 -9.279e-06 0)
(0.016334 -4.89661e-06 0)
(0.020943 -4.84012e-06 0)
(0.0259601 -1.29023e-05 0)
(0.0310299 -3.08403e-05 0)
(0.0355517 -5.8723e-05 0)
(0.0388293 -9.62394e-05 0)
(0.0384609 -8.70981e-05 0)
(0.0352178 -4.88669e-05 0)
(0.0307392 -2.60844e-05 0)
(0.0257194 -8.75553e-06 0)
(0.020752 -5.37542e-07 0)
(0.016188 1.10754e-06 0)
(0.0121015 -1.68679e-08 0)
(0.00839067 -1.25657e-06 0)
(0.00495371 -1.65281e-06 0)
(0.00170012 -4.83619e-07 0)
(0.00168245 -5.62873e-06 0)
(0.00490201 -1.24592e-05 0)
(0.00830289 -1.02174e-05 0)
(0.0119748 -5.23307e-06 0)
(0.0160189 -2.06286e-06 0)
(0.0205356 -3.26884e-06 0)
(0.0254516 -1.19698e-05 0)
(0.0304199 -2.99082e-05 0)
(0.0348523 -5.7837e-05 0)
(0.0380661 -9.66265e-05 0)
(0.0376607 -8.82989e-05 0)
(0.0344834 -4.98759e-05 0)
(0.0300983 -2.74324e-05 0)
(0.0251822 -1.08264e-05 0)
(0.0203175 -1.9801e-06 0)
(0.0158481 6.2547e-07 0)
(0.0118467 2.43146e-07 0)
(0.00821395 -4.45665e-07 0)
(0.00484964 -3.44353e-07 0)
(0.00166466 -1.26027e-08 0)
(0.00164431 -5.34359e-07 0)
(0.0047919 -2.45245e-06 0)
(0.00811796 -3.67837e-06 0)
(0.0117098 -5.26778e-07 0)
(0.0156666 1.4765e-06 0)
(0.0200872 -1.29603e-06 0)
(0.024899 -1.13013e-05 0)
(0.029761 -2.99656e-05 0)
(0.034097 -5.79795e-05 0)
(0.0372408 -9.68613e-05 0)
(0.0368069 -0.000100552 0)
(0.0337007 -5.80395e-05 0)
(0.0294124 -3.18179e-05 0)
(0.0246036 -1.25642e-05 0)
(0.0198447 -1.9158e-06 0)
(0.0154733 1.51949e-06 0)
(0.0115615 1.24302e-06 0)
(0.00801159 3.78813e-07 0)
(0.00472578 3.96493e-07 0)
(0.00161948 2.4943e-07 0)
(0.00160316 -5.0106e-06 0)
(0.00467558 -1.32898e-05 0)
(0.00792402 -1.60212e-05 0)
(0.0114329 -1.72147e-05 0)
(0.0152993 -2.0062e-05 0)
(0.0196199 -2.76599e-05 0)
(0.0243237 -4.28982e-05 0)
(0.0290769 -6.7291e-05 0)
(0.0333157 -0.00010115 0)
(0.0363883 -0.000145102 0)
(0.035971 -0.000130299 0)
(0.0329397 -8.49899e-05 0)
(0.0287511 -5.49365e-05 0)
(0.0240537 -3.26921e-05 0)
(0.019405 -1.91517e-05 0)
(0.0151348 -1.24742e-05 0)
(0.0113134 -9.25785e-06 0)
(0.00784523 -6.74391e-06 0)
(0.00463318 -3.90074e-06 0)
(0.00159125 -1.07105e-06 0)
(0.00156878 -1.64502e-06 0)
(0.00456938 -5.06164e-06 0)
(0.00773926 -6.51579e-06 0)
(0.0111628 -4.81838e-06 0)
(0.0149357 -5.06555e-06 0)
(0.0191523 -1.07786e-05 0)
(0.0237431 -2.46254e-05 0)
(0.0283819 -4.82874e-05 0)
(0.0325181 -8.27189e-05 0)
(0.0355153 -0.000129319 0)
(0.0350334 -0.000128464 0)
(0.0320771 -7.89761e-05 0)
(0.0279926 -4.69992e-05 0)
(0.0234129 -2.33674e-05 0)
(0.0188809 -9.5245e-06 0)
(0.0147186 -3.76174e-06 0)
(0.0109948 -2.32169e-06 0)
(0.00761694 -1.92189e-06 0)
(0.00449189 -9.61611e-07 0)
(0.001539 -1.49601e-07 0)
(0.00152 -5.23639e-06 0)
(0.00443465 -1.4611e-05 0)
(0.00751826 -1.91039e-05 0)
(0.010851 -2.28088e-05 0)
(0.0145249 -2.85409e-05 0)
(0.018631 -3.95703e-05 0)
(0.0231017 -5.88177e-05 0)
(0.0276193 -8.80108e-05 0)
(0.0316483 -0.000127777 0)
(0.0345689 -0.00017882 0)
(0.0341073 -0.00016178 0)
(0.0312332 -0.000109858 0)
(0.0272596 -7.4125e-05 0)
(0.0228038 -4.73255e-05 0)
(0.018394 -3.01111e-05 0)
(0.0143435 -2.04601e-05 0)
(0.0107194 -1.47992e-05 0)
(0.00743172 -1.02226e-05 0)
(0.00438834 -5.80691e-06 0)
(0.00150718 -1.64759e-06 0)
(0.00148214 -2.51283e-06 0)
(0.00431732 -7.13912e-06 0)
(0.00731391 -8.87842e-06 0)
(0.0105523 -8.49547e-06 0)
(0.014123 -1.07505e-05 0)
(0.0181145 -1.91302e-05 0)
(0.0224601 -3.64725e-05 0)
(0.0268511 -6.46881e-05 0)
(0.0307666 -0.000104985 0)
(0.033604 -0.000158867 0)
(0.03307 -0.000156299 0)
(0.0302786 -9.97819e-05 0)
(0.0264202 -6.21806e-05 0)
(0.0220949 -3.40626e-05 0)
(0.0178145 -1.69731e-05 0)
(0.0138829 -8.84993e-06 0)
(0.0103661 -5.66675e-06 0)
(0.00717791 -4.00182e-06 0)
(0.00423088 -2.1696e-06 0)
(0.00144887 -5.01593e-07 0)
(0.00142657 -6.3148e-06 0)
(0.00416497 -1.70705e-05 0)
(0.00706559 -2.15965e-05 0)
(0.0102038 -2.63492e-05 0)
(0.0136654 -3.38782e-05 0)
(0.0175347 -4.73711e-05 0)
(0.0217469 -7.00036e-05 0)
(0.0260031 -0.000103809 0)
(0.0297995 -0.000149717 0)
(0.0325521 -0.000208483 0)
(0.0320362 -0.000192887 0)
(0.0293349 -0.000133315 0)
(0.0255997 -9.13418e-05 0)
(0.0214125 -5.96356e-05 0)
(0.0172682 -3.89165e-05 0)
(0.0134609 -2.66653e-05 0)
(0.0100546 -1.89949e-05 0)
(0.00696637 -1.2891e-05 0)
(0.00411084 -7.40763e-06 0)
(0.00141093 -2.12908e-06 0)
(0.0013833 -4.21339e-06 0)
(0.00403246 -1.09028e-05 0)
(0.00683637 -1.24978e-05 0)
(0.00987044 -1.32977e-05 0)
(0.0132179 -1.751e-05 0)
(0.0169596 -2.8429e-05 0)
(0.0210324 -4.92369e-05 0)
(0.0251472 -8.22211e-05 0)
(0.0288175 -0.000128955 0)
(0.0314786 -0.000190977 0)
(0.0308909 -0.00018722 0)
(0.0282814 -0.000123092 0)
(0.0246752 -7.92911e-05 0)
(0.0206339 -4.64281e-05 0)
(0.016634 -2.5915e-05 0)
(0.0129585 -1.51854e-05 0)
(0.00967039 -9.91814e-06 0)
(0.00669126 -6.62919e-06 0)
(0.00394121 -3.69637e-06 0)
(0.00134884 -9.45165e-07 0)
(0.00132225 -7.18908e-06 0)
(0.00386451 -1.82353e-05 0)
(0.00656248 -2.10856e-05 0)
(0.00948623 -2.50257e-05 0)
(0.0127133 -3.26931e-05 0)
(0.0163195 -4.70643e-05 0)
(0.0202432 -7.17351e-05 0)
(0.0242071 -0.000109192 0)
(0.027744 -0.000160888 0)
(0.0303106 -0.000227847 0)
(0.0297229 -0.000214741 0)
(0.0272122 -0.000147314 0)
(0.0237437 -9.93968e-05 0)
(0.0198576 -6.35409e-05 0)
(0.0160107 -4.01013e-05 0)
(0.0124742 -2.62259e-05 0)
(0.00930916 -1.77666e-05 0)
(0.00644164 -1.15577e-05 0)
(0.00379558 -6.49643e-06 0)
(0.0013004 -1.80943e-06 0)
(0.00126965 -3.43674e-06 0)
(0.00370836 -9.53861e-06 0)
(0.00629702 -1.22115e-05 0)
(0.00910432 -1.46332e-05 0)
(0.0122041 -2.08075e-05 0)
(0.0156679 -3.42579e-05 0)
(0.0194352 -5.82387e-05 0)
(0.0232403 -9.53352e-05 0)
(0.0266359 -0.000147627 0)
(0.0291008 -0.000217177 0)
(0.0284524 -0.000214688 0)
(0.0260454 -0.000143158 0)
(0.0227221 -9.33063e-05 0)
(0.0189987 -5.62194e-05 0)
(0.0153117 -3.23234e-05 0)
(0.0119213 -1.89925e-05 0)
(0.00888727 -1.18511e-05 0)
(0.00614106 -7.32063e-06 0)
(0.00361179 -3.72871e-06 0)
(0.00123408 -9.0417e-07 0)
(0.00120416 -5.96285e-06 0)
(0.0035256 -1.56396e-05 0)
(0.00599672 -1.90859e-05 0)
(0.00868132 -2.39036e-05 0)
(0.0116477 -3.29101e-05 0)
(0.0149619 -4.93568e-05 0)
(0.0185647 -7.68987e-05 0)
(0.0222023 -0.000118278 0)
(0.0254487 -0.000175412 0)
(0.0278066 -0.000249878 0)
(0.0271487 -0.000239001 0)
(0.0248527 -0.000164035 0)
(0.0216832 -0.000110336 0)
(0.0181323 -7.03849e-05 0)
(0.0146146 -4.38293e-05 0)
(0.0113777 -2.77938e-05 0)
(0.00847976 -1.80148e-05 0)
(0.00585751 -1.11586e-05 0)
(0.00344464 -5.92794e-06 0)
(0.0011775 -1.57678e-06 0)
(0.00114341 -2.28154e-06 0)
(0.00334794 -7.43349e-06 0)
(0.00569732 -1.13907e-05 0)
(0.00825321 -1.5494e-05 0)
(0.0110794 -2.36822e-05 0)
(0.0142365 -3.98417e-05 0)
(0.0176663 -6.72565e-05 0)
(0.0211277 -0.000108748 0)
(0.0242164 -0.000166792 0)
(0.0264602 -0.000243965 0)
(0.025745 -0.000242343 0)
(0.0235654 -0.000163049 0)
(0.020557 -0.00010713 0)
(0.0171859 -6.56371e-05 0)
(0.0138446 -3.83509e-05 0)
(0.0107683 -2.25554e-05 0)
(0.00801446 -1.3718e-05 0)
(0.00552599 -8.0674e-06 0)
(0.00324215 -3.86451e-06 0)
(0.00110469 -9.04495e-07 0)
(0.00107188 -5.32143e-06 0)
(0.00314723 -1.47314e-05 0)
(0.00536683 -1.94834e-05 0)
(0.00778738 -2.60967e-05 0)
(0.0104668 -3.72973e-05 0)
(0.0134595 -5.65994e-05 0)
(0.0167083 -8.77474e-05 0)
(0.019985 -0.000133772 0)
(0.0229085 -0.000196982 0)
(0.0250331 -0.000279396 0)
(0.0243092 -0.000267297 0)
(0.0222527 -0.000184426 0)
(0.0194142 -0.000124609 0)
(0.0162332 -8.01622e-05 0)
(0.0130779 -5.03021e-05 0)
(0.0101699 -3.19084e-05 0)
(0.00756544 -2.04735e-05 0)
(0.00521329 -1.24884e-05 0)
(0.00305779 -6.53595e-06 0)
(0.00104235 -1.73048e-06 0)
(0.00100484 -2.44394e-06 0)
(0.00295158 -7.89556e-06 0)
(0.00503769 -1.20921e-05 0)
(0.00731756 -1.70194e-05 0)
(0.0098439 -2.66145e-05 0)
(0.0126646 -4.48748e-05 0)
(0.0157237 -7.53251e-05 0)
(0.0188064 -0.000121126 0)
(0.0215562 -0.000185138 0)
(0.0235547 -0.000270262 0)
(0.0227734 -0.00026588 0)
(0.0208446 -0.000179076 0)
(0.0181831 -0.000117677 0)
(0.0151996 -7.21923e-05 0)
(0.0122374 -4.22135e-05 0)
(0.00950461 -2.46991e-05 0)
(0.00705698 -1.47977e-05 0)
(0.00485035 -8.51981e-06 0)
(0.00283569 -4.04048e-06 0)
(0.000962352 -9.30701e-07 0)
(0.000926167 -5.33044e-06 0)
(0.00273148 -1.48201e-05 0)
(0.00467625 -1.97581e-05 0)
(0.0068093 -2.69454e-05 0)
(0.00917651 -3.91933e-05 0)
(0.0118185 -6.01622e-05 0)
(0.0146801 -9.38313e-05 0)
(0.0175606 -0.000143568 0)
(0.0201293 -0.000212068 0)
(0.0219972 -0.000301716 0)
(0.0212118 -0.000286783 0)
(0.0194174 -0.000197188 0)
(0.0169416 -0.000132609 0)
(0.0141651 -8.47028e-05 0)
(0.011405 -5.26034e-05 0)
(0.00885441 -3.28946e-05 0)
(0.00656809 -2.07621e-05 0)
(0.00450882 -1.24923e-05 0)
(0.00263344 -6.48408e-06 0)
(0.000893508 -1.68827e-06 0)
(0.000852677 -2.86659e-06 0)
(0.00251847 -8.62987e-06 0)
(0.00431947 -1.23e-05 0)
(0.00630156 -1.704e-05 0)
(0.00850446 -2.69788e-05 0)
(0.0109615 -4.61867e-05 0)
(0.0136181 -7.84838e-05 0)
(0.0162885 -0.000127346 0)
(0.0186684 -0.000195938 0)
(0.0203992 -0.000287416 0)
(0.019564 -0.00028032 0)
(0.0179077 -0.000187944 0)
(0.0156229 -0.000122772 0)
(0.013059 -7.44989e-05 0)
(0.0105061 -4.28664e-05 0)
(0.00814275 -2.45431e-05 0)
(0.00602339 -1.4356e-05 0)
(0.00411901 -8.10126e-06 0)
(0.00239412 -3.812e-06 0)
(0.000806941 -8.46509e-07 0)
(0.000768046 -5.55672e-06 0)
(0.00228269 -1.52078e-05 0)
(0.00393355 -1.98707e-05 0)
(0.0057603 -2.69947e-05 0)
(0.00779491 -3.95461e-05 0)
(0.0100624 -6.12476e-05 0)
(0.0125086 -9.62852e-05 0)
(0.0149629 -0.000148291 0)
(0.0171488 -0.00022025 0)
(0.0187392 -0.000314799 0)
(0.0179124 -0.000297144 0)
(0.0163992 -0.000203534 0)
(0.0143117 -0.000136326 0)
(0.0119672 -8.64137e-05 0)
(0.00962772 -5.31478e-05 0)
(0.00745611 -3.2881e-05 0)
(0.00550611 -2.05495e-05 0)
(0.00375659 -1.22647e-05 0)
(0.00217862 -6.36606e-06 0)
(0.000733124 -1.64376e-06 0)
(0.000690278 -3.67383e-06 0)
(0.00205852 -1.00864e-05 0)
(0.00355944 -1.28905e-05 0)
(0.00522929 -1.70137e-05 0)
(0.0070931 -2.67153e-05 0)
(0.0091677 -4.6e-05 0)
(0.0113994 -7.89356e-05 0)
(0.013633 -0.000129197 0)
(0.0156201 -0.000200097 0)
(0.0170656 -0.000294864 0)
(0.0162058 -0.000283967 0)
(0.0148368 -0.000189531 0)
(0.0129486 -0.000123222 0)
(0.0108254 -7.40536e-05 0)
(0.00870074 -4.21213e-05 0)
(0.00672233 -2.3849e-05 0)
(0.00494394 -1.38582e-05 0)
(0.00335345 -7.87432e-06 0)
(0.00193049 -3.81289e-06 0)
(0.000643097 -8.47741e-07 0)
(0.000602604 -6.1408e-06 0)
(0.00181557 -1.60975e-05 0)
(0.00316332 -1.98152e-05 0)
(0.00467536 -2.59887e-05 0)
(0.00636805 -3.77524e-05 0)
(0.00824911 -5.87157e-05 0)
(0.010265 -9.32647e-05 0)
(0.012276 -0.000145174 0)
(0.0140627 -0.000217534 0)
(0.015363 -0.000313038 0)
(0.0145289 -0.000293385 0)
(0.0133059 -0.000199959 0)
(0.0116193 -0.000133226 0)
(0.00971961 -8.37317e-05 0)
(0.00781149 -5.10931e-05 0)
(0.00602671 -3.14606e-05 0)
(0.00441858 -1.96582e-05 0)
(0.00298363 -1.1783e-05 0)
(0.00170899 -6.19409e-06 0)
(0.000566309 -1.59616e-06 0)
(0.000523603 -4.47058e-06 0)
(0.00158982 -1.16107e-05 0)
(0.00278856 -1.37273e-05 0)
(0.00414522 -1.71408e-05 0)
(0.00566848 -2.61547e-05 0)
(0.00735729 -4.45438e-05 0)
(0.0091583 -7.64667e-05 0)
(0.0109474 -0.000125617 0)
(0.0125339 -0.000195275 0)
(0.0136882 -0.000288532 0)
(0.01285 -0.000273302 0)
(0.0117704 -0.000181979 0)
(0.0102814 -0.000118087 0)
(0.00860064 -7.0724e-05 0)
(0.00690439 -4.01874e-05 0)
(0.00530931 -2.28595e-05 0)
(0.00386905 -1.34349e-05 0)
(0.00258942 -7.79786e-06 0)
(0.00146631 -3.91308e-06 0)
(0.000478297 -8.92146e-07 0)
(0.000438271 -6.26879e-06 0)
(0.00135405 -1.5744e-05 0)
(0.00240501 -1.80814e-05 0)
(0.00360979 -2.24493e-05 0)
(0.00496815 -3.22083e-05 0)
(0.00646972 -5.07525e-05 0)
(0.00806097 -8.24782e-05 0)
(0.00963299 -0.00013107 0)
(0.0110236 -0.0001995 0)
(0.0120355 -0.000290336 0)
(0.0112416 -0.000269639 0)
(0.0103028 -0.000182339 0)
(0.00900813 -0.000120377 0)
(0.00754252 -7.45282e-05 0)
(0.00605389 -4.45966e-05 0)
(0.00464342 -2.69301e-05 0)
(0.00336458 -1.65897e-05 0)
(0.0022321 -9.87548e-06 0)
(0.00125018 -5.17668e-06 0)
(0.000402114 -1.30062e-06 0)
(0.000362839 -3.91433e-06 0)
(0.00114032 -1.03506e-05 0)
(0.00205206 -1.25086e-05 0)
(0.00311214 -1.55404e-05 0)
(0.00431251 -2.35234e-05 0)
(0.00563414 -4.00693e-05 0)
(0.00702338 -6.90091e-05 0)
(0.00838602 -0.000113714 0)
(0.00958704 -0.000177185 0)
(0.0104603 -0.000262352 0)
(0.00970005 -0.000240384 0)
(0.00889643 -0.000158768 0)
(0.00778613 -0.000102 0)
(0.00652316 -5.9801e-05 0)
(0.00522957 -3.25696e-05 0)
(0.00399303 -1.73545e-05 0)
(0.00286766 -9.45849e-06 0)
(0.00187686 -5.11874e-06 0)
(0.00103256 -2.38853e-06 0)
(0.000323835 -4.53859e-07 0)
(0.00028373 -3.77046e-06 0)
(0.000922268 -8.47102e-06 0)
(0.00169826 -7.10948e-06 0)
(0.00261959 -6.66205e-06 0)
(0.00367059 -1.15303e-05 0)
(0.00482373 -2.4995e-05 0)
(0.00602452 -5.1005e-05 0)
(0.00719158 -9.28695e-05 0)
(0.00821495 -0.000153283 0)
(0.00895813 -0.000234648 0)
(0.00825437 -0.000247837 0)
(0.00757433 -0.000172992 0)
(0.00663557 -0.000118973 0)
(0.00556234 -7.9338e-05 0)
(0.00445208 -5.31286e-05 0)
(0.00337941 -3.66258e-05 0)
(0.00239872 -2.5487e-05 0)
(0.00154146 -1.66865e-05 0)
(0.000827013 -9.21879e-06 0)
(0.000249878 -2.58741e-06 0)
(0.000220318 -4.76904e-06 0)
(0.000743003 -1.23481e-05 0)
(0.00140201 -1.46771e-05 0)
(0.00220062 -1.72254e-05 0)
(0.0031157 -2.34495e-05 0)
(0.00411195 -3.67505e-05 0)
(0.00513515 -6.10651e-05 0)
(0.00611733 -9.96007e-05 0)
(0.00697291 -0.000154971 0)
(0.00759276 -0.000229235 0)
(0.00695144 -0.000212577 0)
(0.00638843 -0.000143779 0)
(0.0056097 -9.4811e-05 0)
(0.00471285 -5.87194e-05 0)
(0.00377194 -3.55548e-05 0)
(0.00284867 -2.21729e-05 0)
(0.00199731 -1.43886e-05 0)
(0.00125689 -9.11979e-06 0)
(0.000654165 -5.02406e-06 0)
(0.000188368 -1.31377e-06 0)
(0.000157451 -3.7329e-06 0)
(0.00056813 -9.23678e-06 0)
(0.00111635 -9.59096e-06 0)
(0.00180061 -9.62403e-06 0)
(0.00259097 -1.32683e-05 0)
(0.00344496 -2.39073e-05 0)
(0.00430822 -4.50519e-05 0)
(0.00512462 -7.94115e-05 0)
(0.00583048 -0.000129076 0)
(0.00634163 -0.000195766 0)
(0.00576872 -0.000186308 0)
(0.00530869 -0.00012675 0)
(0.00467162 -8.48052e-05 0)
(0.00393134 -5.38343e-05 0)
(0.00314138 -3.41405e-05 0)
(0.00235241 -2.28119e-05 0)
(0.00161879 -1.59247e-05 0)
(0.000986296 -1.06981e-05 0)
(0.00048816 -6.08451e-06 0)
(0.000128446 -1.68164e-06 0)
(0.000102642 -3.89057e-06 0)
(0.000416557 -9.76802e-06 0)
(0.000869205 -1.0556e-05 0)
(0.00145417 -1.06783e-05 0)
(0.00213498 -1.36536e-05 0)
(0.0028627 -2.25345e-05 0)
(0.00358303 -4.05015e-05 0)
(0.00425067 -6.99366e-05 0)
(0.00482164 -0.000112639 0)
(0.00523421 -0.000170062 0)
(0.00473159 -0.000155631 0)
(0.00436282 -0.000102449 0)
(0.00385065 -6.47751e-05 0)
(0.00324795 -3.61983e-05 0)
(0.00259021 -1.83198e-05 0)
(0.0019184 -9.17231e-06 0)
(0.0012872 -5.12833e-06 0)
(0.000748597 -3.1241e-06 0)
(0.00034181 -1.8153e-06 0)
(7.53562e-05 -3.93194e-07 0)
(5.00135e-05 -4.97023e-06 0)
(0.000275006 -1.25972e-05 0)
(0.000642894 -1.43548e-05 0)
(0.00114177 -1.47214e-05 0)
(0.00172861 -1.69378e-05 0)
(0.00234822 -2.35042e-05 0)
(0.00294597 -3.76896e-05 0)
(0.00348567 -6.18337e-05 0)