/*--------------------------------*- C++ -*----------------------------------*\
| =========                 |                                                 |
| \\      /  F ield         | OpenFOAM: The Open Source CFD Toolbox           |
|  \\    /   O peration     | Version:  v2006                                 |
|   \\  /    A nd           | Website:  www.openfoam.com                      |
|    \\/     M anipulation  |                                                 |
\*---------------------------------------------------------------------------*/
FoamFile
{
    version     2.0;
    format      ascii;
    class       surfaceScalarField;
    location    "0.15";
    object      phi;
}
// * * * * * * * * * * * * * * * * * * * * * * * * * * * * * * * * * * * * * //

dimensions      [1 0 -1 0 0 0 0];
oriented        oriented;


internalField   nonuniform List<scalar> 
76100
(
-6.42824e-07
-2.30065e-05
2.28304e-05
1.13167e-06
-2.14002e-05
2.10649e-05
3.32009e-07
1.52317e-06
4.71279e-07
2.52486e-05
9.61841e-07
2.81497e-05
-9.45464e-08
2.96995e-05
6.21522e-08
3.09553e-05
-1.44301e-07
3.13196e-05
-8.703e-08
3.15495e-05
-8.77018e-08
3.16075e-05
-9.74796e-08
3.16167e-05
-1.0938e-07
3.16188e-05
-1.18784e-07
3.16164e-05
-1.2948e-07
3.16177e-05
-1.41426e-07
3.1619e-05
-1.50873e-07
3.16166e-05
-1.62811e-07
3.16191e-05
-1.72214e-07
3.16167e-05
-1.84146e-07
3.16193e-05
-1.93504e-07
3.16168e-05
-2.04106e-07
3.16181e-05
-2.15314e-07
3.16188e-05
-2.25829e-07
3.16182e-05
-2.36327e-07
3.16182e-05
-2.468e-07
3.16183e-05
-2.57207e-07
3.16183e-05
-2.67582e-07
3.16184e-05
-2.77921e-07
3.16184e-05
-2.8817e-07
3.16184e-05
-2.98394e-07
3.16185e-05
-3.08536e-07
3.16185e-05
-3.18622e-07
3.16185e-05
-3.28646e-07
3.16185e-05
-3.38601e-07
3.16185e-05
-3.48486e-07
3.16185e-05
-3.58297e-07
3.16186e-05
-3.68034e-07
3.16186e-05
-3.77694e-07
3.16186e-05
-3.87276e-07
3.16186e-05
-3.96777e-07
3.16186e-05
-4.06181e-07
3.16186e-05
-4.15527e-07
3.16186e-05
-4.2475e-07
3.16185e-05
-4.33906e-07
3.16186e-05
-4.42939e-07
3.16186e-05
-4.51875e-07
3.16186e-05
-4.60705e-07
3.16186e-05
-4.69423e-07
3.16185e-05
-4.78026e-07
3.16185e-05
-4.86519e-07
3.16185e-05
-4.94911e-07
3.16186e-05
-5.03168e-07
3.16185e-05
-5.11307e-07
3.16185e-05
-5.19313e-07
3.16185e-05
-5.27189e-07
3.16185e-05
-5.34938e-07
3.16185e-05
-5.4257e-07
3.16185e-05
-5.5008e-07
3.16185e-05
-5.57467e-07
3.16185e-05
-5.64722e-07
3.16185e-05
-5.71847e-07
3.16185e-05
-5.78836e-07
3.16185e-05
-5.85688e-07
3.16185e-05
-5.92395e-07
3.16186e-05
-5.9896e-07
3.16186e-05
-6.05376e-07
3.16186e-05
-6.11644e-07
3.16186e-05
-6.17754e-07
3.16186e-05
-6.23709e-07
3.16186e-05
-6.29503e-07
3.16186e-05
-6.35134e-07
3.16186e-05
-6.40594e-07
3.16186e-05
-6.45884e-07
3.16187e-05
-6.50998e-07
3.16187e-05
-6.55935e-07
3.16187e-05
-6.60685e-07
3.16187e-05
-6.6525e-07
3.16187e-05
-6.69624e-07
3.16187e-05
-6.73805e-07
3.16187e-05
-6.77782e-07
3.16187e-05
-6.8156e-07
3.16187e-05
-6.85138e-07
3.16187e-05
-6.88525e-07
3.16187e-05
-6.91678e-07
3.16186e-05
-6.94619e-07
3.16186e-05
-6.97339e-07
3.16186e-05
-6.99836e-07
3.16186e-05
-7.02099e-07
3.16186e-05
-7.04131e-07
3.16185e-05
-7.05924e-07
3.16185e-05
-7.07476e-07
3.16185e-05
-7.08777e-07
3.16184e-05
-7.09827e-07
3.16184e-05
-7.1062e-07
3.16183e-05
-7.11152e-07
3.16183e-05
-7.11414e-07
3.16182e-05
-7.11404e-07
3.16181e-05
-7.11117e-07
3.16181e-05
-7.1055e-07
3.1618e-05
-7.09694e-07
3.16179e-05
-7.08547e-07
3.16178e-05
-7.07104e-07
3.16177e-05
-7.05363e-07
3.16176e-05
-7.03314e-07
3.16175e-05
-7.00958e-07
3.16174e-05
-6.98289e-07
3.16173e-05
-6.95307e-07
3.16172e-05
-6.92004e-07
3.16171e-05
-6.88382e-07
3.16169e-05
-6.84437e-07
3.16168e-05
-6.80168e-07
3.16167e-05
-6.7557e-07
3.16166e-05
-6.70645e-07
3.16164e-05
-6.65395e-07
3.16163e-05
-6.59838e-07
3.16162e-05
-6.53939e-07
3.1616e-05
-6.47719e-07
3.16159e-05
-6.41178e-07
3.16157e-05
-6.3432e-07
3.16156e-05
-6.27143e-07
3.16154e-05
-6.19655e-07
3.16153e-05
-6.11861e-07
3.16152e-05
-6.03766e-07
3.1615e-05
-5.95374e-07
3.16149e-05
-5.86696e-07
3.16147e-05
-5.77737e-07
3.16146e-05
-5.68509e-07
3.16145e-05
-5.59017e-07
3.16143e-05
-5.49278e-07
3.16142e-05
-5.39301e-07
3.1614e-05
-5.29104e-07
3.16139e-05
-5.18698e-07
3.16138e-05
-5.08102e-07
3.16136e-05
-4.97332e-07
3.16135e-05
-4.86418e-07
3.16134e-05
-4.75372e-07
3.16133e-05
-4.64222e-07
3.16132e-05
-4.52996e-07
3.16131e-05
-4.41729e-07
3.1613e-05
-4.30455e-07
3.16129e-05
-4.19213e-07
3.16128e-05
-4.08055e-07
3.16128e-05
-3.97036e-07
3.16128e-05
-3.86228e-07
3.16128e-05
-3.75694e-07
3.16129e-05
-3.65538e-07
3.16131e-05
-3.55927e-07
3.16133e-05
-3.47006e-07
3.16137e-05
-3.39009e-07
3.16144e-05
-3.32249e-07
3.16153e-05
-3.27166e-07
3.16166e-05
-3.24415e-07
3.16185e-05
-3.24956e-07
3.16214e-05
-3.30455e-07
3.1626e-05
-3.31516e-07
3.16211e-05
-2.93602e-07
3.15817e-05
-5.41732e-07
3.1374e-05
-4.72964e-07
3.1056e-05
-1.73778e-06
2.99157e-05
-1.72275e-06
2.86329e-05
-3.88799e-06
2.6367e-05
-4.96605e-06
2.52768e-05
-5.2071e-06
4.5441e-06
-5.22238e-06
3.58849e-06
-5.00377e-06
2.75536e-06
-4.57831e-06
2.04251e-06
-3.97673e-06
1.46064e-06
-3.26409e-06
1.00551e-06
-2.46591e-06
6.49681e-07
-1.63139e-06
3.84911e-07
-7.98991e-07
1.93585e-07
5.52645e-08
5.43188e-08
3.32441e-08
1.72068e-07
1.24682e-07
3.34294e-07
2.62953e-07
5.54787e-07
4.64628e-07
8.3058e-07
7.56693e-07
1.16147e-06
1.15173e-06
1.53301e-06
1.6917e-06
1.94027e-06
2.37321e-06
2.3416e-06
3.22167e-06
4.16547e-06
2.76697e-06
-1.44762e-06
3.89584e-06
1.74912e-06
-1.13986e-06
2.9278e-06
-8.70917e-07
2.10004e-06
-6.41729e-07
1.44992e-06
-4.58081e-07
9.56951e-07
-3.14499e-07
6.11658e-07
-2.04305e-07
3.70171e-07
-1.15835e-07
2.04789e-07
-4.67829e-08
9.65527e-08
2.55719e-08
2.51369e-08
2.39928e-08
6.3931e-08
9.08841e-08
1.00135e-07
1.92507e-07
1.39777e-07
3.46986e-07
1.83073e-07
5.71749e-07
2.37863e-07
8.96417e-07
3.21032e-07
1.35528e-06
4.40242e-07
1.97036e-06
5.99445e-07
2.76463e-06
3.71284e-06
7.88648e-07
-3.37016e-07
3.59425e-06
4.57119e-07
-2.44822e-07
2.67301e-06
-1.82953e-07
1.90166e-06
-1.40957e-07
1.30313e-06
-1.1576e-07
8.63801e-07
-9.59371e-08
5.50884e-07
-7.32528e-08
3.33041e-07
-4.92817e-08
1.8591e-07
-2.32811e-08
8.80245e-08
2.3417e-08
7.95504e-09
2.31579e-08
1.30143e-08
8.60157e-08
2.68646e-08
1.82415e-07
4.65256e-08
3.2641e-07
7.14189e-08
5.37369e-07
1.02595e-07
8.42471e-07
1.40943e-07
1.27102e-06
1.908e-07
1.85557e-06
2.59924e-07
2.6054e-06
3.5146e-06
3.41644e-07
-1.4329e-07
3.45113e-06
1.99411e-07
-1.15094e-07
2.56154e-06
-1.06496e-07
1.81972e-06
-1.1593e-07
1.24906e-06
-1.24662e-07
8.25226e-07
-1.27427e-07
5.2818e-07
-1.12439e-07
3.20881e-07
-8.08417e-08
1.78316e-07
-3.93916e-08
8.46243e-08
2.28368e-08
2.00926e-08
2.22685e-08
5.01455e-08
8.2402e-08
7.16214e-08
1.76262e-07
8.86131e-08
3.16022e-07
9.8309e-08
5.18563e-07
9.89644e-08
8.16555e-07
1.0463e-07
1.22933e-06
1.13597e-07
1.7965e-06
1.34638e-07
2.52983e-06
3.40451e-06
1.7558e-07
-1.04557e-07
3.37645e-06
1.32537e-07
-7.66511e-08
2.501e-06
-6.60937e-08
1.77983e-06
-6.39796e-08
1.21842e-06
-6.43387e-08
8.09767e-07
-6.22645e-08
5.14666e-07
-5.3591e-08
3.1407e-07
-3.86073e-08
1.75437e-07
-1.92795e-08
8.22618e-08
2.24293e-08
5.51416e-09
2.20764e-08
4.23947e-09
8.13113e-08
1.08474e-08
1.73654e-07
2.15701e-08
3.11069e-07
3.37796e-08
5.09933e-07
4.80553e-08
8.02525e-07
6.37664e-08
1.2077e-06
8.25866e-08
1.76428e-06
1.06309e-07
2.47917e-06
3.34733e-06
1.37221e-07
-6.50142e-08
3.31155e-06
9.97273e-08
-5.14901e-08
2.46123e-06
-4.46591e-08
1.74804e-06
-4.56231e-08
1.19659e-06
-4.91506e-08
7.95228e-07
-5.02098e-08
5.05436e-07
-4.4691e-08
3.08456e-07
-3.28303e-08
1.7229e-07
-1.64907e-08
8.07397e-08
2.19672e-08
7.28383e-09
2.16531e-08
1.07857e-08
7.98179e-08
1.88978e-08
1.70512e-07
2.87155e-08
3.05468e-07
3.78169e-08
5.00781e-07
4.74605e-08
7.88202e-07
5.81491e-08
1.18636e-06
7.21473e-08
1.7335e-06
9.16584e-08
2.44129e-06
3.28534e-06
1.18345e-07
-7.29136e-08
3.2588e-06
9.95593e-08
-5.63225e-08
2.42163e-06
-4.94384e-08
1.71956e-06
-4.95888e-08
1.17697e-06
-5.17423e-08
7.82188e-07
-5.15606e-08
4.97208e-07
-4.51269e-08
3.0352e-07
-3.2825e-08
1.69627e-07
-1.64533e-08
7.95799e-08
2.17054e-08
6.38502e-09
2.14612e-08
8.04883e-09
7.8847e-08
1.46003e-08
1.68178e-07
2.3118e-08
3.01026e-07
3.15744e-08
4.93233e-07
4.10832e-08
7.76073e-07
5.19807e-08
1.16792e-06
6.63307e-08
1.70649e-06
8.60637e-08
2.40341e-06
3.23463e-06
1.12685e-07
-7.77182e-08
3.21162e-06
1.02671e-07
-5.90646e-08
2.38661e-06
-4.58953e-08
1.69482e-06
-3.68012e-08
1.16015e-06
-2.99086e-08
7.71104e-07
-2.35309e-08
4.90229e-07
-1.73643e-08
2.99314e-07
-1.09679e-08
1.67322e-07
-5.30537e-09
7.85288e-08
2.14291e-08
7.28906e-09
2.12443e-08
1.61796e-08
7.78906e-08
2.48483e-08
1.65981e-07
3.14297e-08
2.96929e-07
3.66147e-08
4.86345e-07
4.09427e-08
7.65043e-07
4.69728e-08
1.15113e-06
5.70937e-08
1.68182e-06
7.40088e-08
2.36852e-06
3.18756e-06
9.8678e-08
-7.0714e-08
3.16435e-06
9.58316e-08
-5.19468e-08
2.35125e-06
-3.82893e-08
1.66954e-06
-2.87747e-08
1.14273e-06
-2.175e-08
7.59461e-07
-1.59768e-08
4.8281e-07
-1.10566e-08
2.94784e-07
-6.6448e-09
1.64792e-07
-3.1755e-09
7.73385e-08
2.10969e-08
3.11644e-09
2.09327e-08
4.84798e-09
7.67414e-08
8.67777e-09
1.63508e-07
1.33668e-08
2.9246e-07
1.91623e-08
4.78972e-07
2.66859e-08
7.53424e-07
3.71378e-08
1.13372e-06
5.16331e-08
1.65655e-06
7.2149e-08
2.33325e-06
3.14048e-06
9.87792e-08
-7.77858e-08
3.11808e-06
1.04803e-07
-5.32263e-08
2.31655e-06
-3.30752e-08
1.64475e-06
-1.63291e-08
1.12575e-06
-3.28799e-09
7.48231e-07
5.26251e-09
4.75767e-07
9.16198e-09
2.90594e-07
8.15842e-09
1.62548e-07
4.30316e-09
7.63597e-08
2.08671e-08
6.28688e-10
2.07626e-08
-2.58308e-09
7.58932e-08
-1.48264e-09
1.61483e-07
2.59734e-09
2.88619e-07
9.33642e-09
4.72465e-07
1.90695e-08
7.42967e-07
3.20446e-08
1.11773e-06
4.84462e-08
1.63293e-06
7.01217e-08
2.29977e-06
3.09537e-06
9.695e-08
-6.51937e-08
3.07166e-06
8.74262e-08
-5.41758e-08
2.28209e-06
-5.03933e-08
1.62033e-06
-5.25143e-08
1.10909e-06
-5.55134e-08
7.37248e-07
-5.444e-08
4.68875e-07
-4.75156e-08
2.86465e-07
-3.33722e-08
1.60308e-07
-1.66779e-08
7.53615e-08
2.06263e-08
7.38783e-09
2.04363e-08
1.64816e-08
7.47439e-08
2.57785e-08
1.59069e-07
3.32523e-08
2.84346e-07
3.91555e-08
4.65513e-07
4.35798e-08
7.32065e-07
4.87134e-08
1.10136e-06
5.68016e-08
1.60906e-06
7.04939e-08
2.26613e-06
3.04998e-06
9.16207e-08
-6.38479e-08
3.02567e-06
8.86591e-08
-4.79681e-08
2.24783e-06
-3.84144e-08
1.59584e-06
-3.4105e-08
1.09217e-06
-3.20507e-08
7.25885e-07
-2.92701e-08
4.61572e-07
-2.45273e-08
2.81945e-07
-1.68399e-08
1.57731e-07
-8.33595e-09
7.41152e-08
2.0269e-08
1.81694e-09
2.00286e-08
1.93123e-09
7.33799e-08
5.69804e-09
1.56264e-07
1.19295e-08
2.79424e-07
2.02303e-08
4.57584e-07
3.05008e-08
7.19798e-07
4.31853e-08
1.08322e-06
5.87043e-08
1.58302e-06
7.88515e-08
2.23014e-06
3.00237e-06
1.0399e-07
-6.84941e-08
2.97902e-06
9.26722e-08
-5.29563e-08
2.21311e-06
-4.48171e-08
1.57132e-06
-4.2335e-08
1.07567e-06
-4.16167e-08
7.1523e-07
-3.95206e-08
4.55082e-07
-3.33127e-08
2.78237e-07
-2.35813e-08
1.55892e-07
-1.16651e-08
7.34669e-08
2.02287e-08
3.56044e-09
1.98694e-08
5.33342e-09
7.25107e-08
8.98714e-09
1.54149e-07
1.38363e-08
2.75399e-07
1.92959e-08
4.50745e-07
2.63069e-08
7.08777e-07
3.55213e-08
1.06637e-06
4.85486e-08
1.55814e-06
6.71135e-08
2.19489e-06
2.95485e-06
9.2318e-08
-6.38015e-08
2.93076e-06
8.92876e-08
-4.59503e-08
2.17705e-06
-3.23803e-08
1.54551e-06
-2.2887e-08
1.05775e-06
-1.59957e-08
7.03084e-07
-1.07734e-08
4.47157e-07
-6.76761e-09
2.73231e-07
-3.75027e-09
1.52951e-07
-1.75811e-09
7.19554e-08
1.97225e-08
3.61368e-09
1.96862e-08
5.83239e-09
7.15944e-08
9.86898e-09
1.51981e-07
1.42607e-08
2.71315e-07
1.92336e-08
4.43842e-07
2.53864e-08
6.97683e-07
3.40781e-08
1.04943e-06
4.67367e-08
1.53315e-06
6.52286e-08
2.15947e-06
2.90697e-06
9.02624e-08
-5.55109e-08
2.88199e-06
8.12177e-08
-3.8685e-08
2.14095e-06
-2.64804e-08
1.52006e-06
-1.87225e-08
1.04052e-06
-1.36246e-08
6.91795e-07
-9.93961e-09
4.40133e-07
-6.92768e-09
2.69079e-07
-4.20707e-09
1.50757e-07
-2.04986e-09
7.10385e-08
1.95416e-08
5.40723e-10
1.93324e-08
-2.10218e-09
7.03761e-08
-2.08951e-09
1.49445e-07
3.83693e-12
2.66815e-07
4.17509e-09
4.3649e-07
1.10666e-08
6.86127e-07
2.099e-08
1.03202e-06
3.47246e-08
1.50761e-06
5.34072e-08
2.12324e-06
2.85776e-06
7.81535e-08
-4.90716e-08
2.83195e-06
7.57828e-08
-3.1478e-08
2.10408e-06
-1.7141e-08
1.49395e-06
-6.81581e-09
1.02257e-06
3.5277e-10
6.79729e-07
4.42921e-09
4.32321e-07
5.93036e-09
2.64177e-07
4.9493e-09
1.47883e-07
2.56608e-09
6.95578e-08
1.90521e-08
7.33507e-10
1.88814e-08
-1.51547e-09
6.89182e-08
-1.36777e-09
1.46526e-07
5.53882e-10
2.61754e-07
4.41062e-09
4.28349e-07
1.1033e-08
6.73478e-07
2.09929e-08
1.01316e-06
3.52721e-08
1.48022e-06
5.49516e-08
2.08474e-06
2.80583e-06
8.09327e-08
-5.7545e-08
2.7783e-06
8.49307e-08
-3.91177e-08
2.06407e-06
-2.48718e-08
1.46542e-06
-1.5026e-08
1.00297e-06
-8.27688e-09
6.66664e-07
-3.86189e-09
4.23997e-07
-1.19334e-09
2.59085e-07
2.21689e-12
1.45026e-07
1.01124e-10
6.82077e-08
1.86784e-08
3.08989e-09
1.85952e-08
4.85392e-09
6.77127e-08
8.08467e-09
1.43809e-07
1.16656e-08
2.56766e-07
1.59711e-08
4.20062e-07
2.18219e-08
6.60325e-07
3.06613e-08
9.93277e-07
4.40887e-08
1.45113e-06
6.37537e-08
2.0439e-06
2.75116e-06
9.06708e-08
-5.92109e-08
2.72301e-06
8.73955e-08
-4.11812e-08
2.02284e-06
-2.7967e-08
1.43613e-06
-1.96331e-08
9.83013e-07
-1.43034e-08
6.53533e-07
-1.0524e-08
4.15778e-07
-7.44538e-09
2.54184e-07
-4.56203e-09
1.42403e-07
-2.20928e-09
6.7089e-08
1.84447e-08
1.37595e-09
1.82809e-08
6.47134e-10
6.64499e-08
1.83297e-09
1.41015e-07
4.37089e-09
2.51682e-07
8.47666e-09
4.11663e-07
1.4912e-08
6.47041e-07
2.45383e-08
9.73204e-07
3.86173e-08
1.42173e-06
5.85111e-08
2.00242e-06
2.69531e-06
8.55331e-08
-5.02692e-08
2.66645e-06
7.99367e-08
-3.20468e-08
1.98098e-06
-1.75451e-08
1.40647e-06
-7.71249e-09
9.62679e-07
-1.30836e-09
6.39958e-07
2.18952e-09
4.07086e-07
3.56329e-09
2.48825e-07
3.12832e-09
1.39363e-07
1.64064e-09
6.56239e-08
1.80227e-08
-9.62871e-10
1.77629e-08
-5.03138e-09
6.47764e-08
-6.75337e-09
1.37669e-07
-5.96665e-09
2.45902e-07
-2.49838e-09
4.02406e-07
4.5718e-09
6.32722e-07
1.54945e-08
9.51931e-07
3.11709e-08
1.39089e-06
5.24073e-08
1.9591e-06
2.63687e-06
8.05521e-08
-5.31801e-08
2.60576e-06
8.43894e-08
-3.37922e-08
1.93577e-06
-1.79986e-08
1.37415e-06
-6.94783e-09
9.40328e-07
3.99325e-10
6.24884e-07
4.41656e-09
3.9732e-07
5.7988e-09
2.42713e-07
4.82856e-09
1.35817e-07
2.54187e-09
6.38477e-08
1.74705e-08
1.84983e-09
1.73149e-08
2.50091e-09
6.31569e-08
4.09338e-09
1.34257e-07
6.23345e-09
2.39861e-07
9.48981e-09
3.92594e-07
1.49631e-08
6.17397e-07
2.40671e-08
9.29016e-07
3.85995e-08
1.35762e-06
5.9927e-08
1.91251e-06
2.57448e-06
8.93962e-08
-5.62547e-08
2.5417e-06
8.85828e-08
-3.65899e-08
1.88793e-06
-2.16549e-08
1.34002e-06
-1.22238e-08
9.16883e-07
-6.52921e-09
6.09275e-07
-3.32039e-09
3.87394e-07
-1.52869e-09
2.3666e-07
-5.53996e-10
1.32452e-07
-2.02419e-10
6.22998e-08
1.70744e-08
-3.74342e-10
1.68208e-08
-3.3784e-09
6.14234e-08
-4.14155e-09
1.30646e-07
-2.57356e-09
2.33491e-07
1.57482e-09
3.82273e-07
9.23782e-09
6.01305e-07
2.09638e-08
9.04986e-07
3.78986e-08
1.32273e-06
6.11516e-08
1.86363e-06
2.50897e-06
9.21609e-08
-6.12243e-08
2.47494e-06
9.55541e-08
-3.97582e-08
1.83816e-06
-2.24768e-08
1.30451e-06
-1.04306e-08
8.92401e-07
-2.39953e-09
5.92837e-07
2.19899e-09
3.76804e-07
4.1299e-09
2.30084e-07
3.75687e-09
1.28686e-07
2.0361e-09
6.04588e-08
1.65281e-08
2.27607e-09
1.63403e-08
3.76997e-09
5.96672e-08
6.0555e-09
1.26928e-07
8.78603e-09
2.26895e-07
1.26246e-08
3.7155e-07
1.87431e-08
5.84547e-07
2.87927e-08
8.79909e-07
4.4815e-08
1.28627e-06
6.83921e-08
1.81254e-06
2.44049e-06
1.01042e-07
-6.45533e-08
2.40432e-06
1.00519e-07
-4.25995e-08
1.78541e-06
-2.60885e-08
1.26685e-06
-1.57e-08
8.66507e-07
-9.41822e-09
5.75565e-07
-5.7226e-09
3.65789e-07
-3.42314e-09
2.23342e-07
-1.8039e-09
1.24919e-07
-7.88731e-10
5.8711e-08
1.6072e-08
-6.89511e-11
1.5794e-08
-2.43691e-09
5.77406e-08
-2.62139e-09
1.2291e-07
-5.02979e-10
2.19814e-07
4.26613e-09
3.60089e-07
1.27021e-08
5.66694e-07
2.5585e-08
8.53265e-07
4.42856e-08
1.24761e-06
7.01656e-08
1.75839e-06
2.36796e-06
1.04792e-07
-7.07157e-08
2.33014e-06
1.09017e-07
-4.6538e-08
1.73007e-06
-2.73938e-08
1.22736e-06
-1.41609e-08
8.39279e-07
-5.3663e-09
5.5729e-07
-1.57883e-10
3.54021e-07
2.34311e-09
2.1604e-07
2.61028e-09
1.20747e-07
1.5018e-09
5.66829e-08
1.54781e-08
2.73531e-09
1.52678e-08
4.92983e-09
5.57994e-08
7.97621e-09
1.18786e-07
1.14831e-08
2.12487e-07
1.61851e-08
3.48174e-07
2.33226e-08
5.48074e-07
3.47818e-08
8.25397e-07
5.28374e-08
1.20709e-06
7.93691e-08
1.7016e-06
2.29189e-06
1.16023e-07
-7.61536e-08
2.2518e-06
1.16242e-07
-5.12686e-08
1.67154e-06
-3.28461e-08
1.18558e-06
-2.1266e-08
8.10573e-07
-1.41798e-08
5.38154e-07
-9.7051e-09
3.41823e-07
-6.53847e-09
2.08578e-07
-3.84583e-09
1.16587e-07
-1.76408e-09
5.4764e-08
1.49854e-08
6.21611e-10
1.46873e-08
-5.30775e-10
5.37024e-08
3.70306e-10
1.14369e-07
3.36442e-09
2.04673e-07
8.92311e-09
3.35504e-07
1.81544e-08
5.28306e-07
3.22001e-08
7.95855e-07
5.27675e-08
1.16418e-06
8.15954e-08
1.64148e-06
2.21137e-06
1.20414e-07
-8.13613e-08
2.16922e-06
1.2413e-07
-5.40569e-08
1.6099e-06
-3.29764e-08
1.14159e-06
-1.86512e-08
7.80261e-07
-9.23026e-09
5.17831e-07
-3.47498e-09
3.28755e-07
-3.28669e-10
2.00485e-07
8.26702e-10
1.11979e-07
6.48015e-10
5.25436e-08
1.43471e-08
2.5799e-09
1.41343e-08
4.47397e-09
5.16102e-08
7.63981e-09
1.09876e-07
1.17091e-08
1.96644e-07
1.74192e-08
3.22405e-07
2.60685e-08
5.07783e-07
3.95761e-08
7.65072e-07
6.02948e-08
1.11933e-06
9.03513e-08
1.57854e-06
2.12699e-06
1.31505e-07
-8.50642e-08
2.08264e-06
1.29632e-07
-5.67133e-08
1.54537e-06
-3.57242e-08
1.09566e-06
-2.22164e-08
7.48791e-07
-1.37802e-08
4.96909e-07
-8.54297e-09
3.15455e-07
-5.13901e-09
1.92375e-07
-2.70674e-09
1.07479e-07
-1.1496e-09
5.04854e-08
1.38291e-08
8.12861e-11
1.34908e-08
-1.32388e-09
4.92965e-08
-7.29301e-10
1.0501e-07
2.20646e-09
1.88037e-07
8.08342e-09
3.08443e-07
1.81829e-08
4.8599e-07
3.3741e-08
7.32476e-07
5.66467e-08
1.07192e-06
8.87688e-08
1.512e-06
2.03772e-06
1.32066e-07
-8.71813e-08
1.99083e-06
1.34617e-07
-5.66762e-08
1.47692e-06
-3.33406e-08
1.04684e-06
-1.75028e-08
7.15151e-07
-7.22275e-09
4.74339e-07
-1.21724e-09
3.00924e-07
1.72423e-09
1.83356e-07
2.3129e-09
1.02325e-07
1.43592e-09
4.79816e-08
1.30975e-08
1.70664e-09
1.28466e-08
2.62642e-09
4.69209e-08
4.99631e-09
9.99657e-08
8.78646e-09
1.79076e-07
1.48105e-08
2.93872e-07
2.45357e-08
4.63202e-07
3.98385e-08
6.98329e-07
6.31508e-08
1.02219e-06
9.66518e-08
1.44215e-06
1.94394e-06
1.42328e-07
-9.14742e-08
1.89479e-06
1.40802e-07
-5.97828e-08
1.40544e-06
-3.62583e-08
9.96011e-07
-2.09084e-08
6.80329e-07
-1.13088e-08
4.51168e-07
-5.63421e-09
2.86164e-07
-2.40706e-09
1.74327e-07
-7.06621e-10
9.72846e-08
-1.05956e-10
4.56502e-08
1.24945e-08
-5.54053e-10
1.211e-08
-2.32674e-09
4.43121e-08
-2.16809e-09
9.45198e-08
6.11863e-10
1.69483e-07
6.74936e-09
2.7835e-07
1.77125e-08
4.39016e-07
3.48268e-08
6.62188e-07
6.01606e-08
9.69628e-07
9.56857e-08
1.36836e-06
1.84487e-06
1.436e-07
-9.47782e-08
1.79302e-06
1.47053e-07
-6.101e-08
1.3296e-06
-3.53403e-08
9.41927e-07
-1.79307e-08
6.43065e-07
-6.70812e-09
4.26157e-07
-2.77311e-10
2.70046e-07
2.71677e-09
1.64308e-07
3.08572e-09
9.15463e-08
1.87259e-09
4.28538e-08
1.16738e-08
1.48336e-09
1.13816e-08
2.42429e-09
4.16532e-08
4.77485e-09
8.8903e-08
8.70639e-09
1.59537e-07
1.5155e-08
2.62211e-07
2.57541e-08
4.13809e-07
4.25443e-08
6.24441e-07
6.81986e-08
9.14656e-07
1.05082e-07
1.29114e-06
1.74116e-06
1.55429e-07
-1.00691e-07
1.68717e-06
1.54821e-07
-6.56587e-08
1.25083e-06
-3.97991e-08
8.85933e-07
-2.29031e-08
6.04697e-07
-1.23422e-08
4.00612e-07
-6.10791e-09
2.53756e-07
-2.57765e-09
1.54323e-07
-7.27113e-10
8.59567e-08
-6.98037e-11
4.02559e-08
1.09948e-08
-6.04047e-10
1.05803e-08
-2.11773e-09
3.88025e-08
-1.71372e-09
8.29435e-08
1.42259e-09
1.49037e-07
8.13921e-09
2.45222e-07
2.00433e-08
3.87333e-07
3.86609e-08
5.84855e-07
6.63054e-08
8.57052e-07
1.05197e-07
1.21022e-06
1.63247e-06
1.57751e-07
-1.04035e-07
1.57603e-06
1.609e-07
-6.69609e-08
1.16808e-06
-3.90324e-08
8.2698e-07
-2.01208e-08
5.64127e-07
-7.94955e-09
3.73414e-07
-9.39536e-10
2.36245e-07
2.39578e-09
1.43449e-07
2.96515e-09
7.97383e-08
1.85653e-09
3.72364e-08
1.01162e-08
1.37103e-09
9.79114e-09
2.3328e-09
3.59223e-08
4.79412e-09
7.68612e-08
9.03697e-09
1.38271e-07
1.60761e-08
2.27754e-07
2.76666e-08
3.60043e-07
4.59848e-08
5.43961e-07
7.39013e-08
7.9744e-07
1.14007e-07
1.12639e-06
1.51978e-06
1.68747e-07
-1.09272e-07
1.46166e-06
1.67611e-07
-7.11063e-08
1.08307e-06
-4.30531e-08
7.66603e-07
-2.46329e-08
5.22787e-07
-1.30674e-08
3.45899e-07
-6.2341e-09
2.18694e-07
-2.40766e-09
1.32682e-07
-4.95021e-10
7.3701e-08
8.79083e-11
3.44221e-08
9.37558e-09
-7.27567e-10
8.93594e-09
-2.18844e-09
3.28764e-08
-1.66784e-09
7.04927e-08
1.74762e-09
1.2705e-07
8.98348e-09
2.09599e-07
2.17589e-08
3.31738e-07
4.17337e-08
5.01606e-07
7.13944e-08
7.35737e-07
1.1317e-07
1.03961e-06
1.40308e-06
1.69651e-07
-1.11222e-07
1.34318e-06
1.71623e-07
-7.15239e-08
9.94968e-07
-4.18067e-08
7.0393e-07
-2.16739e-08
4.79718e-07
-8.70853e-09
3.17062e-07
-1.2144e-09
2.00144e-07
2.38057e-09
1.2117e-07
3.04689e-09
6.71228e-08
1.93177e-09
3.12334e-08
8.45179e-09
1.28924e-09
8.10061e-09
2.164e-09
2.98355e-08
4.66434e-09
6.40797e-08
9.12578e-09
1.15708e-07
1.66058e-08
1.91203e-07
2.89485e-08
3.02992e-07
4.84068e-08
4.58501e-07
7.798e-08
6.72834e-07
1.20421e-07
9.51038e-07
1.28385e-06
1.78332e-07
-1.15193e-07
1.22321e-06
1.7617e-07
-7.50197e-08
9.059e-07
-4.5572e-08
6.40748e-07
-2.61709e-08
4.36495e-07
-1.39341e-08
2.88304e-07
-6.65605e-09
1.81797e-07
-2.55977e-09
1.09905e-07
-5.14291e-10
6.07967e-08
1.03483e-10
2.82764e-08
7.66892e-09
-6.26727e-10
7.21882e-09
-1.89777e-09
2.66892e-08
-1.13027e-09
5.74983e-08
2.57285e-09
1.04113e-07
1.01715e-08
1.7244e-07
2.34354e-08
2.73726e-07
4.41238e-08
4.14669e-07
7.4832e-08
6.08904e-07
1.18148e-07
8.61018e-07
1.16264e-06
1.76744e-07
-1.15045e-07
1.10148e-06
1.76806e-07
-7.42046e-08
8.15495e-07
-4.38163e-08
5.76529e-07
-2.3248e-08
3.92428e-07
-9.98034e-09
2.58835e-07
-2.21669e-09
1.62859e-07
1.63865e-09
9.81608e-08
2.58208e-09
5.40918e-08
1.7105e-09
2.50328e-08
6.73381e-09
1.41711e-09
6.37985e-09
2.18841e-09
2.36275e-08
4.79707e-09
5.10354e-08
9.47327e-09
9.26774e-08
1.72365e-08
1.53883e-07
2.9929e-08
2.44705e-07
4.97939e-08
3.71098e-07
7.98402e-08
5.45225e-07
1.22902e-07
7.71208e-07
1.04158e-06
1.81618e-07
-1.16615e-07
9.81224e-07
1.77386e-07
-7.6323e-08
7.26349e-07
-4.6882e-08
5.13393e-07
-2.74456e-08
3.49304e-07
-1.51062e-08
2.30182e-07
-7.63512e-09
1.44594e-07
-3.29794e-09
8.69534e-08
-9.8413e-10
4.78018e-08
-1.35628e-10
2.20966e-08
5.95926e-09
-2.85269e-10
5.52256e-09
-1.19906e-09
2.05492e-08
-8.56062e-11
4.458e-08
3.80336e-09
8.1292e-08
1.14039e-08
1.35445e-07
2.4447e-08
2.15914e-07
4.47327e-08
3.2792e-07
7.48673e-08
4.82158e-07
1.17488e-07
6.82277e-07
9.21697e-07
1.75226e-07
-1.12106e-07
8.62484e-07
1.71925e-07
-7.24522e-08
6.38263e-07
-4.30909e-08
4.50893e-07
-2.32765e-08
3.06468e-07
-1.05088e-08
2.01568e-07
-2.97533e-09
1.26222e-07
8.71552e-10
7.55663e-08
2.00748e-09
4.13059e-08
1.4017e-09
1.89599e-08
5.05889e-09
1.23921e-09
4.73004e-09
1.46605e-09
1.76441e-08
3.73311e-09
3.84368e-08
8.18667e-09
7.04122e-08
1.57244e-08
1.17774e-07
2.80821e-08
1.88249e-07
4.72877e-08
2.86326e-07
7.61294e-08
4.2127e-07
1.1731e-07
5.96261e-07
8.05577e-07
1.73326e-07
-1.08524e-07
7.49114e-07
1.6541e-07
-7.06932e-08
5.54362e-07
-4.3029e-08
3.91584e-07
-2.46943e-08
2.66031e-07
-1.30269e-08
1.74742e-07
-6.02054e-09
1.09142e-07
-2.08252e-09
6.50944e-08
-2.02363e-10
3.54331e-08
2.23991e-10
1.62225e-08
4.3397e-09
-5.72641e-10
3.93569e-09
-1.63647e-09
1.4797e-08
-9.60625e-10
3.2471e-08
2.26345e-09
5.98945e-08
8.93286e-09
1.00741e-07
2.06962e-08
1.6164e-07
3.91958e-08
2.46385e-07
6.68335e-08
3.62868e-07
1.05991e-07
5.1381e-07
6.94281e-07
1.59107e-07
-9.8165e-08
6.40827e-07
1.52406e-07
-6.17557e-08
4.74144e-07
-3.46513e-08
3.34727e-07
-1.61457e-08
2.27086e-07
-4.2634e-09
1.48728e-07
2.33211e-09
9.24323e-08
5.05284e-09
5.47282e-08
4.76066e-09
2.95053e-08
2.75497e-09
1.33445e-08
3.50557e-09
-1.77224e-09
3.1265e-09
-3.98231e-09
1.20163e-08
-4.29742e-09
2.67496e-08
-1.66881e-09
4.98937e-08
4.68157e-09
8.4629e-08
1.62811e-08
1.36569e-07
3.44105e-08
2.08858e-07
6.10541e-08
3.08078e-07
9.83226e-08
4.36493e-07
5.89901e-07
1.48334e-07
-9.91656e-08
5.41316e-07
1.47638e-07
-6.71989e-08
4.00574e-07
-4.43307e-08
2.82769e-07
-2.97577e-08
1.91686e-07
-2.0559e-08
1.25254e-07
-1.43836e-08
7.74873e-08
-9.77792e-09
4.55604e-08
-5.78217e-09
2.43528e-08
-2.71069e-09
1.09264e-08
2.85768e-09
1.59881e-09
2.5443e-09
2.49346e-09
9.77902e-09
5.01984e-09
2.19227e-08
9.07193e-09
4.12558e-08
1.53315e-08
7.04947e-08
2.51029e-08
1.14294e-07
4.01544e-08
1.75179e-07
6.28752e-08
2.58561e-07
9.56529e-08
3.66324e-07
4.94972e-07
1.40655e-07
-8.75254e-08
4.50869e-07
1.31982e-07
-5.78809e-08
3.33657e-07
-3.61206e-08
2.35478e-07
-2.17011e-08
1.59448e-07
-1.24346e-08
1.03861e-07
-6.65847e-09
6.38551e-08
-3.17067e-09
3.71856e-08
-1.18311e-09
1.96369e-08
-3.85654e-10
8.70691e-09
2.25806e-09
-3.61183e-10
1.93391e-09
-9.48376e-10
7.59691e-09
-1.73088e-10
1.73505e-08
2.51697e-09
3.3189e-08
7.76424e-09
5.74188e-08
1.68068e-08
9.38465e-08
3.09363e-08
1.44452e-07
5.20128e-08
2.13578e-07
8.19407e-08
3.0275e-07
4.09096e-07
1.22564e-07
-7.63541e-08
3.70278e-07
1.15393e-07
-5.08992e-08
2.74065e-07
-3.21408e-08
1.93381e-07
-1.98368e-08
1.30749e-07
-1.19559e-08
8.48092e-08
-6.94212e-09
5.17045e-08
-3.76082e-09
2.97121e-08
-1.73392e-09
1.54172e-08
-7.6227e-10
6.70743e-09
1.70876e-09
4.18936e-11
1.43648e-09
-6.69246e-10
5.75508e-09
-4.80043e-11
1.34434e-08
2.19612e-09
2.62547e-08
6.59037e-09
4.61276e-08
1.42186e-08
7.61162e-08
2.62307e-08
1.17708e-07
4.43077e-08
1.74302e-07
7.01139e-08
2.47098e-07
3.33778e-07
1.05295e-07
-6.23192e-08
2.99622e-07
9.72012e-08
-3.98043e-08
2.21752e-07
-2.25297e-08
1.56332e-07
-1.08992e-08
1.05395e-07
-3.47507e-09
6.78834e-08
6.7601e-10
4.08277e-08
2.47724e-09
2.29531e-08
2.47815e-09
1.15452e-08
1.37652e-09
4.82695e-09
1.16304e-09
1.28446e-09
9.96421e-10
3.49615e-10
4.14469e-09
1.21133e-09
1.00509e-08
3.41979e-09
2.02606e-08
7.26359e-09
3.63951e-08
1.36925e-08
6.08569e-08
2.37197e-08
9.47039e-08
3.88833e-08
1.40513e-07
6.06469e-08
1.99197e-07
2.68916e-07
9.04003e-08
-4.896e-08
2.39755e-07
7.84776e-08
-3.04213e-08
1.77559e-07
-1.64125e-08
1.2516e-07
-7.2335e-09
8.41736e-08
-1.59451e-09
5.38114e-08
1.37612e-09
3.1859e-08
2.50157e-09
1.74359e-08
2.28283e-09
8.42672e-09
1.28784e-09
3.34623e-09
7.54333e-10
1.10143e-09
6.09727e-10
-4.03588e-12
2.76244e-09
4.98432e-10
7.15548e-09
2.17912e-09
1.51489e-08
5.25816e-09
2.80957e-08
1.05562e-08
4.78514e-08
1.89027e-08
7.51185e-08
3.15827e-08
1.11782e-07
4.97706e-08
1.58509e-07
2.13856e-07
7.46321e-08
-3.80751e-08
1.89355e-07
6.28568e-08
-2.31967e-08
1.40333e-07
-1.18489e-08
9.88802e-08
-4.52459e-09
6.62644e-08
-1.57058e-10
4.19211e-08
2.00461e-09
2.42712e-08
2.65973e-09
1.27608e-08
2.24716e-09
5.77644e-09
1.23791e-09
2.07963e-09
3.99926e-10
1.06482e-09
2.77275e-10
-3.38503e-11
1.58872e-09
2.78419e-10
4.71221e-09
1.55697e-09
1.08503e-08
3.95568e-09
2.11307e-08
8.17329e-09
3.69513e-08
1.48985e-08
5.87196e-08
2.52196e-08
8.77435e-08
4.00648e-08
1.24488e-07
1.67831e-07
6.04184e-08
-2.85256e-08
1.47615e-07
4.89236e-08
-1.69333e-08
1.09495e-07
-8.0496e-09
7.71044e-08
-2.47201e-09
5.14201e-08
6.96247e-10
3.20639e-08
2.1262e-09
1.79799e-08
2.41008e-09
8.88313e-09
1.93526e-09
3.57556e-09
1.04893e-09
1.02475e-09
1.01639e-10
1.01161e-09
1.92661e-12
1.92699e-11
6.24444e-10
2.01908e-10
2.70994e-09
1.12908e-09
7.32995e-09
2.90834e-09
1.54266e-08
6.12005e-09
2.80239e-08
1.13392e-08
4.52899e-08
1.94753e-08
6.80618e-08
3.12514e-08
9.66361e-08
1.30155e-07
4.74818e-08
-2.01962e-08
1.13767e-07
3.67108e-08
-1.14996e-08
8.44932e-08
-4.78894e-09
5.94501e-08
-7.43285e-10
3.93861e-08
1.37595e-09
2.40751e-08
2.17057e-09
1.28846e-08
2.13902e-09
5.74553e-09
1.62638e-09
1.79568e-09
8.7158e-10
1.70793e-10
-1.38372e-10
1.01988e-09
-2.22023e-10
1.67432e-10
-1.51938e-10
2.9533e-10
1.09298e-09
9.68583e-10
4.48571e-09
2.2568e-09
1.08136e-08
4.64146e-09
2.07992e-08
8.61235e-09
3.44204e-08
1.49372e-08
5.21359e-08
2.41723e-08
7.41067e-08
9.96902e-08
3.69852e-08
-1.33766e-08
8.6526e-08
2.66148e-08
-7.05128e-09
6.43665e-08
-2.16949e-09
4.52345e-08
5.71617e-10
2.96953e-08
1.79699e-09
1.76451e-08
2.06262e-09
8.78892e-09
1.78687e-09
3.22799e-09
1.27929e-09
3.69721e-10
6.77289e-10
-5.13157e-10
-3.3229e-10
9.82453e-10
-4.00567e-10
2.51362e-10
-7.75075e-10
3.15652e-10
-1.92177e-10
7.6588e-10
2.21994e-09
1.6442e-09
7.13028e-09
3.34529e-09
1.50223e-08
6.28307e-09
2.57258e-08
1.1096e-08
3.9401e-08
1.82018e-08
5.61007e-08
7.53421e-08
2.81411e-08
-7.55853e-09
6.48873e-08
1.80926e-08
-3.24698e-09
4.83785e-08
1.45121e-10
3.39417e-08
1.83658e-09
2.19982e-08
2.34829e-09
1.25425e-08
2.18353e-09
5.5449e-09
1.68617e-09
1.23942e-09
1.13116e-09
-7.53701e-10
5.84862e-10
-1.05128e-09
-4.8523e-10
1.10742e-09
-5.4447e-10
2.87599e-10
-1.26589e-09
2.76714e-10
-1.20139e-09
5.82872e-10
4.47642e-10
1.18067e-09
4.2513e-09
2.39552e-09
1.05019e-08
4.55051e-09
1.89101e-08
8.17701e-09
2.9399e-08
1.35732e-08
4.19307e-08
5.614e-08
2.11788e-08
-4.14778e-09
4.8e-08
1.23631e-08
-1.28429e-09
3.59385e-08
1.00016e-09
2.51807e-08
1.98042e-09
1.60435e-08
2.07572e-09
8.60558e-09
1.70451e-09
3.04654e-09
1.18078e-09
-2.9306e-10
7.28306e-10
-1.62377e-09
3.58426e-10
-1.47288e-09
-6.0747e-10
6.25164e-10
-6.50983e-10
1.97645e-10
-1.63091e-09
8.59472e-11
-1.96146e-09
7.36406e-11
-9.02675e-10
2.10207e-10
2.03633e-09
7.57552e-10
7.00218e-09
2.03454e-09
1.36171e-08
4.47582e-09
2.16213e-08
8.30903e-09
3.09049e-08
4.1189e-08
1.39083e-08
-2.60741e-10
3.4874e-08
6.82274e-09
1.50089e-09
2.62185e-08
2.80465e-09
1.83064e-08
3.11195e-09
1.13578e-08
2.70455e-09
5.51116e-09
2.00691e-09
1.10088e-09
1.26718e-09
-1.4622e-09
7.3473e-10
-2.26648e-09
3.90884e-10
-1.77208e-09
-6.90119e-10
-7.98366e-11
-7.31042e-10
-2.2527e-10
-1.91556e-09
-5.67411e-10
-2.56512e-09
-9.49996e-10
-1.9904e-09
-1.24624e-09
2.40506e-10