/*--------------------------------*- C++ -*----------------------------------*\
| =========                 |                                                 |
| \\      /  F ield         | OpenFOAM: The Open Source CFD Toolbox           |
|  \\    /   O peration     | Version:  v2006                                 |
|   \\  /    A nd           | Website:  www.openfoam.com                      |
|    \\/     M anipulation  |                                                 |
\*---------------------------------------------------------------------------*/
FoamFile
{
    version     2.0;
    format      ascii;
    class       volScalarField;
    location    "0.15";
    object      T;
}
// * * * * * * * * * * * * * * * * * * * * * * * * * * * * * * * * * * * * * //

dimensions      [0 0 0 1 0 0 0];


internalField   nonuniform List<scalar> 
38348
(
297.331
297.134
299.897
299.9
299.926
299.917
299.923
299.913
299.914
299.912
299.913
299.913
299.913
299.913
299.913
299.913
299.913
299.913
299.913
299.913
299.913
299.913
299.913
299.913
299.913
299.913
299.913
299.913
299.913
299.913
299.913
299.913
299.913
299.913
299.913
299.913
299.913
299.913
299.913
299.913
299.913
299.913
299.913
299.913
299.913
299.913
299.913
299.913
299.913
299.913
299.913
299.913
299.913
299.913
299.913
299.913
299.913
299.913
299.913
299.913
299.913
299.913
299.913
299.913
299.913
299.913
299.913
299.913
299.913
299.913
299.913
299.913
299.913
299.913
299.913
299.913
299.913
299.913
299.913
299.913
299.913
299.913
299.913
299.913
299.913
299.913
299.913
299.913
299.913
299.913
299.913
299.913
299.913
299.913
299.913
299.913
299.913
299.913
299.913
299.913
299.913
299.913
299.913
299.913
299.913
299.913
299.913
299.913
299.913
299.913
299.913
299.913
299.913
299.913
299.913
299.913
299.913
299.913
299.913
299.913
299.913
299.913
299.913
299.913
299.913
299.913
299.913
299.913
299.913
299.913
299.913
299.913
299.913
299.913
299.913
299.912
299.912
299.912
299.912
299.912
299.912
299.912
299.912
299.912
299.912
299.912
299.912
299.912
299.912
299.912
299.912
299.912
299.912
299.912
299.912
299.912
299.912
299.914
299.914
299.925
299.922
299.939
299.918
299.834
299.771
299.67
299.579
299.51
299.48
299.49
299.535
299.572
299.603
294.467
294.477
294.522
294.607
294.773
295.04
295.416
295.873
296.36
296.799
292.241
291.914
291.53
291.212
290.982
290.858
290.822
290.862
290.905
290.939
289.293
289.264
289.246
289.225
289.234
289.285
289.395
289.556
289.761
289.994
289.889
289.905
289.894
289.922
289.972
290.038
290.112
290.19
290.243
290.269
290.646
290.678
290.678
290.671
290.651
290.619
290.572
290.508
290.424
290.331
290.385
290.491
290.506
290.525
290.554
290.617
290.707
290.822
290.906
290.956
289.861
289.833
289.812
289.783
289.772
289.784
289.826
289.882
289.943
289.989
290.174
290.264
290.309
290.363
290.418
290.48
290.547
290.614
290.66
290.683
289.883
289.905
289.918
289.938
289.959
289.983
290.008
290.032
290.051
290.059
290.169
290.224
290.237
290.256
290.279
290.316
290.363
290.418
290.457
290.479
290.071
290.083
290.084
290.085
290.087
290.092
290.099
290.106
290.11
290.105
290.299
290.397
290.453
290.508
290.559
290.614
290.673
290.733
290.774
290.796
290.239
290.252
290.255
290.259
290.263
290.267
290.271
290.27
290.257
290.227
290.266
290.332
290.357
290.378
290.393
290.407
290.421
290.432
290.44
290.442
290.372
290.369
290.359
290.345
290.329
290.316
290.307
290.296
290.277
290.245
290.217
290.265
290.281
290.293
290.301
290.307
290.313
290.318
290.322
290.322
290.329
290.336
290.335
290.33
290.322
290.312
290.299
290.28
290.254
290.218
290.302
290.382
290.433
290.477
290.505
290.52
290.521
290.513
290.503
290.495
290.57
290.586
290.592
290.594
290.588
290.573
290.547
290.508
290.454
290.383
290.249
290.284
290.277
290.264
290.256
290.262
290.287
290.323
290.353
290.371
290.16
290.158
290.151
290.14
290.129
290.124
290.124
290.127
290.129
290.122
290.1
290.127
290.128
290.129
290.132
290.142
290.159
290.18
290.197
290.206
290.182
290.195
290.2
290.203
290.2
290.193
290.182
290.167
290.148
290.124
290.297
290.384
290.432
290.474
290.51
290.546
290.586
290.626
290.654
290.668
290.102
290.104
290.107
290.113
290.121
290.132
290.146
290.157
290.162
290.152
290.064
290.068
290.06
290.052
290.045
290.041
290.04
290.04
290.041
290.04
290.187
290.192
290.19
290.185
290.178
290.171
290.164
290.155
290.142
290.124
290.097
290.107
290.104
290.098
290.092
290.089
290.089
290.091
290.093
290.094
289.708
289.715
289.724
289.739
289.757
289.783
289.815
289.853
289.895
289.934
289.745
289.668
289.607
289.556
289.516
289.487
289.465
289.449
289.438
289.433
289.482
289.487
289.493
289.503
289.518
289.538
289.568
289.609
289.663
289.728
289.783
289.736
289.698
289.67
289.651
289.639
289.631
289.626
289.623
289.621
289.847
289.849
289.848
289.846
289.845
289.847
289.854
289.866
289.883
289.905
289.957
289.945
289.929
289.915
289.905
289.9
289.9
289.903
289.905
289.907
289.757
289.761
289.766
289.774
289.785
289.8
289.822
289.85
289.881
289.912
289.77
289.702
289.646
289.597
289.56
289.533
289.514
289.501
289.494
289.491
289.279
289.283
289.293
289.31
289.332
289.363
289.405
289.461
289.534
289.622
289.6
289.51
289.442
289.388
289.35
289.322
289.302
289.288
289.279
289.275
289.426
289.424
289.425
289.428
289.436
289.452
289.478
289.518
289.573
289.645
289.704
289.641
289.591
289.551
289.523
289.506
289.496
289.492
289.491
289.491
289.383
289.386
289.395
289.408
289.427
289.451
289.486
289.532
289.593
289.667
289.646
289.569
289.508
289.46
289.426
289.402
289.385
289.372
289.365
289.361
289.465
289.463
289.463
289.465
289.472
289.486
289.511
289.549
289.603
289.67
289.712
289.655
289.606
289.568
289.543
289.527
289.52
289.518
289.518
289.519
289.419
289.422
289.43
289.442
289.458
289.479
289.51
289.553
289.609
289.679
289.671
289.604
289.548
289.505
289.475
289.454
289.44
289.43
289.424
289.421
289.545
289.543
289.542
289.542
289.545
289.555
289.575
289.606
289.651
289.709
289.768
289.727
289.689
289.66
289.641
289.631
289.628
289.63
289.632
289.634
289.539
289.541
289.547
289.556
289.567
289.584
289.608
289.641
289.686
289.742
289.732
289.681
289.636
289.602
289.578
289.562
289.552
289.546
289.543
289.541
289.664
289.664
289.663
289.663
289.665
289.671
289.684
289.706
289.738
289.78
289.818
289.787
289.757
289.733
289.718
289.709
289.707
289.708
289.709
289.711
289.554
289.555
289.561
289.571
289.584
289.602
289.627
289.661
289.705
289.758
289.715
289.659
289.613
289.576
289.55
289.533
289.521
289.514
289.509
289.507
289.613
289.613
289.614
289.616
289.621
289.63
289.646
289.671
289.707
289.754
289.782
289.743
289.709
289.681
289.663
289.652
289.647
289.645
289.645
289.646
289.495
289.495
289.502
289.513
289.527
289.547
289.573
289.61
289.659
289.719
289.693
289.633
289.586
289.548
289.522
289.504
289.492
289.483
289.478
289.476
289.595
289.593
289.595
289.597
289.602
289.611
289.627
289.653
289.69
289.739
289.78
289.743
289.709
289.683
289.666
289.655
289.651
289.649
289.649
289.65
289.519
289.519
289.525
289.535
289.548
289.566
289.59
289.625
289.67
289.727
289.714
289.66
289.617
289.582
289.558
289.542
289.531
289.523
289.519
289.517
289.63
289.629
289.63
289.632
289.636
289.645
289.66
289.683
289.717
289.762
289.8
289.766
289.737
289.713
289.697
289.688
289.683
289.682
289.682
289.683
289.554
289.553
289.559
289.569
289.581
289.598
289.62
289.652
289.694
289.746
289.737
289.688
289.649
289.618
289.596
289.581
289.57
289.563
289.558
289.557
289.654
289.653
289.654
289.657
289.661
289.669
289.683
289.705
289.737
289.779
289.812
289.782
289.754
289.731
289.716
289.707
289.703
289.701
289.701
289.702
289.578
289.578
289.584
289.593
289.605
289.62
289.641
289.67
289.71
289.76
289.756
289.711
289.675
289.646
289.625
289.611
289.602
289.595
289.591
289.589
289.67
289.67
289.671
289.674
289.679
289.687
289.701
289.723
289.754
289.794
289.825
289.797
289.769
289.747
289.732
289.723
289.719
289.718
289.718
289.718
289.6
289.6
289.605
289.613
289.624
289.638
289.658
289.687
289.725
289.772
289.769
289.728
289.693
289.665
289.645
289.631
289.622
289.616
289.612
289.611
289.668
289.669
289.672
289.676
289.682
289.691
289.706
289.729
289.76
289.8
289.819
289.788
289.759
289.735
289.719
289.708
289.703
289.7
289.699
289.699
289.568
289.567
289.572
289.581
289.592
289.608
289.63
289.661
289.702
289.753
289.749
289.702
289.667
289.638
289.617
289.602
289.59
289.581
289.575
289.572
289.689
289.689
289.695
289.703
289.713
289.723
289.736
289.754
289.779
289.814
289.776
289.731
289.687
289.652
289.627
289.612
289.607
289.608
289.61
289.612
289.646
289.646
289.648
289.652
289.658
289.669
289.687
289.713
289.748
289.792
289.81
289.774
289.74
289.714
289.695
289.682
289.676
289.673
289.672
289.671
289.661
289.66
289.664
289.671
289.679
289.69
289.707
289.73
289.761
289.801
289.773
289.727
289.684
289.65
289.625
289.609
289.6
289.596
289.595
289.594
289.592
289.592
289.596
289.602
289.612
289.625
289.645
289.673
289.711
289.76
289.711
289.656
289.61
289.576
289.551
289.534
289.523
289.515
289.511
289.509
289.507
289.51
289.514
289.522
289.532
289.548
289.573
289.608
289.655
289.715
289.761
289.718
289.684
289.658
289.64
289.628
289.619
289.614
289.61
289.609
289.485
289.487
289.492
289.499
289.511
289.528
289.555
289.592
289.641
289.704
289.758
289.714
289.68
289.654
289.636
289.624
289.616
289.611
289.608
289.607
289.456
289.458
289.463
289.471
289.482
289.501
289.529
289.568
289.621
289.687
289.762
289.72
289.688
289.663
289.646
289.634
289.627
289.623
289.62
289.62
289.457
289.458
289.463
289.47
289.482
289.5
289.528
289.567
289.62
289.686
289.78
289.742
289.713
289.69
289.675
289.665
289.66
289.656
289.654
289.654
289.464
289.465
289.469
289.476
289.487
289.505
289.532
289.571
289.623
289.689
289.8
289.767
289.741
289.722
289.708
289.7
289.695
289.693
289.692
289.692
289.483
289.483
289.487
289.494
289.504
289.522
289.548
289.586
289.636
289.699
289.82
289.793
289.772
289.755
289.744
289.738
289.734
289.732
289.732
289.732
289.445
289.446
289.45
289.457
289.468
289.487
289.515
289.555
289.609
289.676
289.814
289.783
289.759
289.739
289.726
289.719
289.715
289.713
289.712
289.713
289.604
289.603
289.606
289.611
289.619
289.632
289.652
289.681
289.72
289.768
289.913
289.906
289.901
289.897
289.894
289.894
289.894
289.895
289.896
289.897
289.736
289.734
289.735
289.739
289.743
289.75
289.762
289.779
289.802
289.834
289.796
289.761
289.732
289.709
289.695
289.687
289.682
289.68
289.679
289.68
289.809
289.807
289.807
289.809
289.812
289.817
289.825
289.837
289.854
289.877
290.043
290.067
290.088
290.103
290.115
290.125
290.132
290.138
290.141
290.144
289.855
289.852
289.853
289.854
289.856
289.86
289.866
289.876
289.89
289.907
290.061
290.088
290.11
290.126
290.139
290.149
290.156
290.162
290.165
290.168
289.859
289.857
289.857
289.858
289.86
289.864
289.87
289.879
289.892
289.909
290.034
290.056
290.074
290.088
290.099
290.109
290.116
290.121
290.124
290.126
289.923
289.92
289.92
289.92
289.921
289.922
289.924
289.928
289.934
289.943
290.061
290.088
290.111
290.128
290.142
290.153
290.162
290.167
290.171
290.173
289.897
289.894
289.894
289.895
289.896
289.899
289.903
289.91
289.92
289.932
290.054
290.077
290.097
290.11
290.121
290.13
290.137
290.142
290.145
290.148
289.921
289.917
289.917
289.918
289.919
289.921
289.925
289.931
289.939
289.949
290.08
290.107
290.129
290.144
290.156
290.166
290.173
290.179
290.182
290.185
289.974
289.97
289.97
289.97
289.97
289.97
289.972
289.974
289.977
289.981
290.112
290.146
290.175
290.194
290.209
290.22
290.228
290.234
290.237
290.24
289.997
289.993
289.993
289.992
289.992
289.991
289.989
289.988
289.988
289.987
289.929
289.922
289.915
289.91
289.908
289.907
289.908
289.909
289.911
289.912
289.973
289.969
289.968
289.968
289.968
289.968
289.968
289.969
289.971
289.974
290.118
290.154
290.183
290.204
290.22
290.232
290.241
290.248
290.252
290.254
290.064
290.059
290.058
290.057
290.054
290.051
290.046
290.04
290.032
290.024
289.987
289.992
289.997
290
290.004
290.008
290.012
290.015
290.017
290.019
290.074
290.069
290.068
290.066
290.063
290.06
290.055
290.049
290.042
290.033
290.173
290.22
290.258
290.285
290.306
290.321
290.332
290.34
290.345
290.348
290.18
290.175
290.172
290.169
290.164
290.158
290.148
290.136
290.119
290.097
290.221
290.277
290.323
290.355
290.38
290.397
290.41
290.419
290.425
290.428
290.256
290.25
290.247
290.243
290.237
290.229
290.216
290.198
290.174
290.143
290.263
290.327
290.378
290.415
290.442
290.462
290.475
290.485
290.491
290.494
290.326
290.32
290.317
290.312
290.305
290.294
290.278
290.256
290.226
290.187
290.303
290.374
290.431
290.472
290.502
290.523
290.537
290.548
290.554
290.557
290.384
290.379
290.375
290.37
290.362
290.349
290.331
290.305
290.269
290.223
290.339
290.417
290.48
290.525
290.558
290.58
290.596
290.606
290.612
290.615
290.455
290.45
290.446
290.44
290.43
290.415
290.392
290.36
290.317
290.261
290.244
290.303
290.351
290.385
290.41
290.429
290.441
290.45
290.455
290.458
290.415
290.409
290.405
290.4
290.391
290.377
290.357
290.328
290.289
290.238
290.346
290.426
290.491
290.537
290.571
290.595
290.611
290.622
290.628
290.632
290.482
290.476
290.472
290.466
290.455
290.439
290.415
290.381
290.335
290.276
290.272
290.337
290.389
290.427
290.455
290.475
290.489
290.499
290.504
290.508
290.458
290.452
290.448
290.441
290.431
290.416
290.394
290.362
290.319
290.264
290.358
290.44
290.506
290.553
290.587
290.612
290.629
290.641
290.648
290.651
290.511
290.504
290.5
290.492
290.481
290.464
290.44
290.405
290.358
290.296
290.381
290.468
290.537
290.587
290.624
290.649
290.667
290.68
290.687
290.691
290.55
290.544
290.539
290.532
290.519
290.501
290.475
290.437
290.386
290.32
290.398
290.489
290.561
290.612
290.65
290.676
290.695
290.707
290.714
290.718
290.585
290.578
290.573
290.565
290.552
290.533
290.505
290.465
290.411
290.341
290.41
290.502
290.576
290.629
290.667
290.694
290.713
290.726
290.733
290.737
290.607
290.6
290.595
290.587
290.574
290.554
290.524
290.483
290.426
290.353
290.42
290.515
290.59
290.643
290.682
290.71
290.729
290.741
290.749
290.753
290.627
290.621
290.616
290.607
290.594
290.573
290.543
290.5
290.442
290.366
290.423
290.519
290.594
290.649
290.688
290.715
290.735
290.747
290.755
290.759
290.628
290.622
290.617
290.609
290.595
290.575
290.544
290.501
290.443
290.367
290.423
290.518
290.593
290.647
290.686
290.713
290.732
290.744
290.752
290.756
290.652
290.646
290.64
290.631
290.618
290.596
290.565
290.52
290.459
290.381
290.427
290.523
290.599
290.653
290.692
290.719
290.738
290.751
290.759
290.762
290.61
290.604
290.599
290.591
290.578
290.558
290.529
290.487
290.431
290.358
290.387
290.474
290.541
290.589
290.624
290.649
290.666
290.678
290.685
290.688
290.577
290.572
290.567
290.559
290.547
290.529
290.502
290.464
290.411
290.342
290.39
290.473
290.538
290.582
290.614
290.636
290.652
290.662
290.668
290.671
290.693
290.686
290.681
290.671
290.657
290.635
290.603
290.559
290.497
290.415
290.409
290.489
290.55
290.592
290.622
290.644
290.66
290.671
290.678
290.682
290.631
290.623
290.616
290.605
290.592
290.576
290.555
290.526
290.486
290.43
290.31
290.386
290.449
290.497
290.531
290.555
290.571
290.581
290.587
290.59
290.543
290.537
290.531
290.519
290.501
290.473
290.435
290.384
290.322
290.253
290.038
290.012
290.011
290.012
290.012
290.013
290.013
290.014
290.013
290.014
290.013
290.014
290.013
290.014
290.013
290.013
290.013
290.013
290.014
290.039
290.231
290.304
290.37
290.425
290.467
290.498
290.519
290.532
290.539
290.543
290.553
290.546
290.54
290.53
290.512
290.484
290.445
290.393
290.33
290.26
290.257
290.335
290.403
290.457
290.498
290.529
290.549
290.562
290.57
290.573
290.533
290.525
290.521
290.511
290.494
290.468
290.432
290.383
290.323
290.255
290.235
290.309
290.373
290.424
290.464
290.493
290.513
290.525
290.532
290.536
290.429
290.422
290.418
290.411
290.397
290.377
290.348
290.31
290.262
290.208
290.22
290.29
290.349
290.398
290.436
290.463
290.482
290.494
290.5
290.503
290.465
290.458
290.454
290.446
290.432
290.411
290.381
290.34
290.289
290.229
290.227
290.301
290.365
290.416
290.457
290.486
290.506
290.519
290.526
290.529
290.417
290.411
290.407
290.4
290.387
290.367
290.34
290.303
290.257
290.205
290.243
290.321
290.389
290.446
290.49
290.522
290.544
290.558
290.565
290.569
290.454
290.447
290.443
290.435
290.422
290.401
290.371
290.331
290.28
290.222
290.229
290.302
290.367
290.419
290.46
290.49
290.51
290.523
290.53
290.533
290.495
290.488
290.483
290.474
290.457
290.432
290.396
290.349
290.291
290.227
290.227
290.3
290.364
290.416
290.456
290.485
290.505
290.518
290.525
290.528
290.498
290.49
290.485
290.476
290.459
290.434
290.397
290.349
290.291
290.227
290.228
290.304
290.37
290.424
290.465
290.496
290.516
290.529
290.536
290.54
290.515
290.508
290.503
290.493
290.476
290.449
290.411
290.361
290.301
290.235
290.238
290.316
290.385
290.441
290.484
290.516
290.537
290.55
290.558
290.561
290.528
290.521
290.516
290.506
290.488
290.461
290.422
290.371
290.309
290.241
290.247
290.325
290.392
290.446
290.489
290.519
290.54
290.553
290.561
290.564
290.516
290.509
290.503
290.494
290.477
290.45
290.412
290.362
290.301
290.235
290.232
290.308
290.376
290.431
290.474
290.505
290.526
290.539
290.547
290.551
290.491
290.483
290.478
290.469
290.452
290.427
290.39
290.342
290.284
290.221
290.205
290.274
290.336
290.386
290.425
290.453
290.473
290.485
290.492
290.496
290.428
290.421
290.416
290.408
290.393
290.371
290.338
290.296
290.246
290.191
290.176
290.237
290.29
290.334
290.368
290.393
290.411
290.422
290.428
290.431
290.349
290.343
290.339
290.333
290.32
290.301
290.275
290.24
290.199
290.155
290.128
290.169
290.204
290.231
290.254
290.271
290.282
290.29
290.295
290.297
290.152
290.147
290.145
290.142
290.136
290.128
290.116
290.101
290.083
290.064
290.257
290.347
290.429
290.497
290.55
290.59
290.616
290.633
290.642
290.647
290.451
290.443
290.438
290.429
290.414
290.39
290.356
290.312
290.259
290.201
290.212
290.287
290.353
290.407
290.45
290.482
290.504
290.517
290.525
290.529
290.297
290.291
290.288
290.283
290.272
290.257
290.235
290.206
290.172
290.135
290.229
290.308
290.38
290.439
290.486
290.52
290.544
290.558
290.567
290.571
290.341
290.334
290.33
290.324
290.313
290.295
290.27
290.238
290.199
290.156
290.221
290.293
290.355
290.405
290.445
290.474
290.494
290.507
290.515
290.519
290.36
290.352
290.349
290.342
290.329
290.309
290.281
290.244
290.201
290.154
290.083
290.113
290.136
290.154
290.168
290.179
290.186
290.192
290.195
290.197
290.261
290.254
290.251
290.246
290.237
290.223
290.203
290.177
290.147
290.113
290.045
290.064
290.077
290.087
290.095
290.102
290.107
290.111
290.113
290.115
290.208
290.202
290.2
290.196
290.188
290.176
290.159
290.138
290.113
290.087
290.031
290.045
290.053
290.059
290.064
290.068
290.072
290.075
290.077
290.078
290.217
290.211
290.209
290.205
290.197
290.185
290.168
290.147
290.122
290.094
290.06
290.078
290.085
290.088
290.091
290.094
290.097
290.099
290.101
290.102
290.237
290.23
290.227
290.222
290.212
290.196
290.175
290.148
290.117
290.086
290.033
290.05
290.06
290.068
290.075
290.081
290.086
290.089
290.091
290.093
290.224
290.217
290.215
290.21
290.202
290.189
290.17
290.147
290.12
290.091
290.021
290.033
290.038
290.041
290.044
290.048
290.051
290.053
290.055
290.056
290.293
290.286
290.282
290.276
290.265
290.247
290.222
290.191
290.155
290.117
290.046
290.078
290.111
290.143
290.172
290.197
290.216
290.228
290.233
290.236
289.647
289.65
289.656
289.665
289.681
289.706
289.741
289.784
289.831
289.878
290.054
290.092
290.132
290.171
290.207
290.237
290.259
290.272
290.279
290.282
289.704
289.706
289.711
289.719
289.733
289.755
289.785
289.821
289.86
289.898
289.858
289.83
289.809
289.798
289.795
289.796
289.799
289.801
289.802
289.802
289.327
289.337
289.345
289.36
289.387
289.43
289.488
289.56
289.644
289.73
289.916
289.914
289.921
289.935
289.952
289.969
289.982
289.991
289.995
289.997
289.554
289.558
289.563
289.572
289.589
289.615
289.651
289.697
289.75
289.807
289.921
289.918
289.922
289.93
289.94
289.951
289.961
289.968
289.969
289.969
289.913
289.913
289.916
289.918
289.923
289.93
289.941
289.951
289.96
289.956
289.962
289.966
289.98
289.992
290.002
290.012
290.022
290.031
290.038
290.042
289.877
289.873
289.871
289.87
289.869
289.872
289.876
289.884
289.896
289.911
290.061
290.089
290.115
290.137
290.158
290.176
290.189
290.198
290.203
290.206
289.685
289.687
289.691
289.698
289.712
289.734
289.764
289.799
289.84
289.88
289.954
289.955
289.959
289.966
289.977
289.988
289.998
290.005
290.009
290.01
289.476
289.481
289.487
289.498
289.519
289.55
289.592
289.644
289.705
289.771
289.765
289.715
289.675
289.65
289.636
289.631
289.631
289.631
289.631
289.63
289.129
289.14
289.149
289.166
289.199
289.249
289.32
289.408
289.512
289.625
289.905
289.895
289.891
289.894
289.904
289.915
289.926
289.934
289.938
289.94
289.544
289.549
289.555
289.567
289.588
289.62
289.663
289.714
289.771
289.829
289.875
289.858
289.849
289.848
289.855
289.866
289.877
289.885
289.888
289.89
289.37
289.376
289.382
289.394
289.417
289.451
289.498
289.557
289.626
289.705
289.739
289.695
289.647
289.61
289.586
289.571
289.563
289.555
289.55
289.544
289.604
289.609
289.613
289.619
289.63
289.647
289.672
289.701
289.734
289.776
289.766
289.727
289.702
289.691
289.688
289.689
289.691
289.692
289.693
289.694
289.441
289.447
289.451
289.462
289.481
289.512
289.555
289.607
289.669
289.74
289.826
289.788
289.757
289.737
289.728
289.725
289.726
289.727
289.728
289.728
289.278
289.289
289.298
289.316
289.348
289.396
289.459
289.535
289.622
289.714
289.659
289.549
289.452
289.376
289.32
289.284
289.262
289.248
289.24
289.234
289.422
289.439
289.448
289.462
289.482
289.513
289.555
289.607
289.665
289.715
289.671
289.6
289.538
289.493
289.458
289.436
289.423
289.418
289.415
289.415
289.665
289.66
289.655
289.653
289.657
289.671
289.691
289.718
289.753
289.799
289.771
289.704
289.645
289.599
289.566
289.545
289.531
289.524
289.521
289.519
289.274
289.291
289.294
289.305
289.334
289.38
289.444
289.523
289.617
289.72
289.829
289.755
289.685
289.628
289.59
289.568
289.559
289.554
289.551
289.549
289.784
289.791
289.791
289.792
289.799
289.811
289.83
289.851
289.874
289.88
289.908
289.866
289.831
289.803
289.785
289.776
289.778
289.788
289.797
289.802
289.816
289.806
289.798
289.793
289.795
289.808
289.831
289.86
289.893
289.931
289.765
289.752
289.714
289.687
289.671
289.667
289.673
289.685
289.696
289.703
289.63
289.627
289.616
289.607
289.617
289.65
289.705
289.765
289.819
289.88
289.688
289.62
289.546
289.497
289.467
289.452
289.449
289.453
289.458
289.46
289.336
289.355
289.363
289.377
289.4
289.431
289.474
289.53
289.601
289.692
289.793
289.729
289.673
289.639
289.625
289.624
289.627
289.628
289.628
289.628
289.58
289.592
289.6
289.613
289.627
289.643
289.661
289.685
289.72
289.777
289.794
289.754
289.72
289.701
289.694
289.699
289.714
289.733
289.747
289.755
289.744
289.738
289.733
289.731
289.736
289.755
289.786
289.823
289.849
289.867
289.814
289.751
289.695
289.653
289.624
289.609
289.604
289.607
289.612
289.615
289.606
289.61
289.613
289.619
289.627
289.64
289.658
289.682
289.715
289.763
289.802
289.782
289.734
289.676
289.621
289.577
289.547
289.528
289.518
289.514
289.412
289.42
289.428
289.444
289.466
289.5
289.547
289.608
289.68
289.763
289.555
289.483
289.426
289.382
289.349
289.327
289.314
289.308
289.307
289.307
289.457
289.46
289.463
289.472
289.488
289.519
289.564
289.623
289.688
289.744
289.691
289.603
289.531
289.476
289.435
289.408
289.391
289.383
289.379
289.378
289.458
289.463
289.468
289.476
289.485
289.497
289.513
289.535
289.568
289.621
289.792
289.763
289.711
289.652
289.598
289.555
289.526
289.508
289.499
289.495
289.424
289.432
289.44
289.455
289.478
289.512
289.56
289.622
289.691
289.767
289.694
289.613
289.549
289.497
289.457
289.427
289.408
289.397
289.392
289.391
289.369
289.367
289.37
289.377
289.388
289.405
289.428
289.459
289.501
289.562
289.742
289.689
289.62
289.549
289.487
289.441
289.412
289.396
289.39
289.387
289.165
289.17
289.18
289.2
289.233
289.281
289.348
289.432
289.529
289.632
289.521
289.413
289.33
289.263
289.211
289.174
289.15
289.137
289.132
289.13
289.162
289.161
289.164
289.171
289.182
289.2
289.226
289.262
289.313
289.388
289.608
289.541
289.465
289.391
289.328
289.279
289.243
289.219
289.205
289.199
289.077
289.083
289.094
289.115
289.146
289.192
289.256
289.34
289.443
289.561
289.274
289.174
289.106
289.056
289.016
288.983
288.954
288.931
288.916
288.91
289.169
289.169
289.171
289.178
289.195
289.229
289.284
289.361
289.454
289.544
289.537
289.424
289.33
289.259
289.207
289.174
289.154
289.147
289.145
289.146
289.263
289.264
289.267
289.271
289.278
289.288
289.306
289.334
289.376
289.445
289.687
289.625
289.548
289.469
289.402
289.352
289.324
289.312
289.309
289.31
289.147
289.152
289.16
289.176
289.206
289.255
289.323
289.41
289.511
289.618
289.52
289.414
289.325
289.255
289.202
289.167
289.148
289.142
289.143
289.146
289.203
289.197
289.195
289.195
289.201
289.215
289.239
289.276
289.327
289.404
289.63
289.567
289.493
289.426
289.371
289.332
289.308
289.295
289.29
289.289
289.222
289.225
289.233
289.246
289.268
289.303
289.353
289.421
289.505
289.607
289.374
289.279
289.21
289.16
289.125
289.102
289.092
289.089
289.09
289.091
289.209
289.207
289.208
289.216
289.235
289.274
289.333
289.414
289.508
289.597
289.538
289.424
289.325
289.247
289.191
289.154
289.132
289.123
289.122
289.122
289.211
289.212
289.213
289.216
289.222
289.233
289.251
289.28
289.324
289.397
289.632
289.579
289.512
289.45
289.399
289.361
289.336
289.322
289.315
289.312
289.221
289.226
289.234
289.249
289.273
289.31
289.363
289.432
289.518
289.616
289.408
289.327
289.268
289.227
289.195
289.172
289.155
289.143
289.135
289.132
289.264
289.264
289.266
289.274
289.291
289.326
289.382
289.459
289.548
289.627
289.593
289.493
289.407
289.341
289.293
289.262
289.245
289.241
289.242
289.244
289.378
289.376
289.376
289.377
289.38
289.388
289.401
289.424
289.461
289.521
289.709
289.654
289.58
289.504
289.44
289.394
289.37
289.361
289.361
289.363
289.222
289.227
289.232
289.244
289.268
289.308
289.367
289.443
289.533
289.631
289.566
289.481
289.408
289.349
289.306
289.279
289.266
289.267
289.272
289.278
289.301
289.291
289.287
289.284
289.287
289.298
289.32
289.353
289.401
289.474
289.621
289.579
289.521
289.465
289.421
289.391
289.376
289.372
289.372
289.374
289.25
289.249
289.252
289.257
289.267
289.287
289.317
289.361
289.419
289.502
289.674
289.603
289.514
289.433
289.367
289.32
289.29
289.274
289.267
289.266
289.249
289.25
289.255
289.267
289.287
289.319
289.368
289.434
289.519
289.618
289.396
289.318
289.26
289.217
289.186
289.165
289.15
289.141
289.137
289.135
289.263
289.263
289.268
289.278
289.296
289.33
289.383
289.454
289.537
289.614
289.565
289.464
289.38
289.315
289.269
289.239
289.222
289.215
289.214
289.215
289.357
289.358
289.359
289.362
289.365
289.37
289.381
289.4
289.433
289.491
289.683
289.646
289.591
289.536
289.49
289.457
289.438
289.429
289.427
289.426
289.269
289.272
289.278
289.29
289.311
289.347
289.401
289.471
289.557
289.653
289.431
289.353
289.292
289.248
289.219
289.201
289.195
289.194
289.197
289.199
289.292
289.289
289.288
289.291
289.304
289.336
289.388
289.461
289.546
289.627
289.581
289.493
289.419
289.364
289.325
289.3
289.289
289.287
289.29
289.292
289.442
289.444
289.446
289.449
289.453
289.458
289.466
289.481
289.508
289.56
289.688
289.645
289.583
289.522
289.473
289.441
289.424
289.419
289.419
289.421
289.325
289.328
289.333
289.343
289.361
289.393
289.439
289.5
289.575
289.663
289.425
289.34
289.269
289.216
289.183
289.166
289.164
289.169
289.176
289.181
289.293
289.289
289.287
289.288
289.298
289.324
289.369
289.435
289.51
289.579
289.443
289.367
289.307
289.266
289.239
289.226
289.222
289.224
289.227
289.229
289.303
289.304
289.311
289.325
289.347
289.382
289.432
289.499
289.578
289.652
289.612
289.53
289.461
289.408
289.369
289.344
289.33
289.325
289.324
289.325
289.511
289.512
289.513
289.514
289.514
289.515
289.518
289.527
289.548
289.593
289.749
289.731
289.697
289.66
289.63
289.608
289.597
289.593
289.592
289.593
289.442
289.444
289.448
289.456
289.471
289.498
289.537
289.588
289.65
289.723
289.576
289.527
289.485
289.453
289.431
289.419
289.414
289.414
289.416
289.418
289.596
289.594
289.595
289.596
289.599
289.609
289.628
289.658
289.69
289.711
289.657
289.595
289.551
289.518
289.496
289.483
289.478
289.48
289.481
289.482
289.408
289.406
289.412
289.425
289.45
289.49
289.545
289.613
289.686
289.746
289.678
289.605
289.542
289.493
289.456
289.433
289.422
289.421
289.424
289.427
289.582
289.578
289.577
289.577
289.577
289.579
289.583
289.593
289.614
289.656
289.771
289.744
289.701
289.657
289.622
289.598
289.588
289.587
289.59
289.593
289.603
289.602
289.603
289.606
289.615
289.632
289.657
289.691
289.734
289.787
289.68
289.634
289.595
289.565
289.544
289.531
289.528
289.53
289.533
289.536
289.64
289.636
289.634
289.635
289.639
289.65
289.671
289.701
289.734
289.757
289.74
289.693
289.667
289.65
289.642
289.639
289.641
289.646
289.65
289.653
289.586
289.586
289.592
289.605
289.625
289.652
289.687
289.729
289.771
289.805
289.768
289.716
289.674
289.639
289.614
289.598
289.589
289.588
289.589
289.592
289.728
289.727
289.729
289.731
289.733
289.734
289.734
289.737
289.748
289.776
289.82
289.805
289.773
289.736
289.708
289.691
289.687
289.692
289.699
289.703
289.62
289.617
289.617
289.618
289.622
289.632
289.649
289.674
289.707
289.753
289.821
289.792
289.747
289.704
289.668
289.643
289.629
289.625
289.625
289.626
289.642
289.642
289.643
289.645
289.65
289.661
289.68
289.709
289.747
289.797
289.708
289.67
289.643
289.625
289.614
289.607
289.605
289.605
289.606
289.607
289.577
289.572
289.57
289.571
289.579
289.6
289.634
289.681
289.73
289.768
289.736
289.683
289.643
289.613
289.591
289.579
289.575
289.577
289.582
289.586
289.723
289.721
289.722
289.724
289.725
289.727
289.728
289.73
289.739
289.766
289.808
289.797
289.775
289.748
289.728
289.717
289.717
289.724
289.732