/*--------------------------------*- C++ -*----------------------------------*\
| =========                 |                                                 |
| \\      /  F ield         | OpenFOAM: The Open Source CFD Toolbox           |
|  \\    /   O peration     | Version:  v2006                                 |
|   \\  /    A nd           | Website:  www.openfoam.com                      |
|    \\/     M anipulation  |                                                 |
\*---------------------------------------------------------------------------*/
FoamFile
{
    version     2.0;
    format      ascii;
    class       volVectorField;
    location    "0.15";
    object      U;
}
// * * * * * * * * * * * * * * * * * * * * * * * * * * * * * * * * * * * * * //

dimensions      [0 1 -1 0 0 0 0];


internalField   nonuniform List<vector> 
38348
(
(0.0542533 6.3976e-06 -7.55245e-15)
(0.0542553 1.42121e-05 9.84245e-16)
(0.0523433 -2.80712e-06 -1.05738e-15)
(0.0523646 6.14955e-05 0)
(0.0523947 2.27121e-05 4.76594e-16)
(0.0523885 -5.84747e-05 -4.15404e-16)
(0.0523712 -8.63005e-05 4.01801e-16)
(0.0523635 -0.000141212 -1.88233e-16)
(0.0523627 -0.000143553 0)
(0.0523633 -0.0001745 2.30793e-17)
(0.0523652 -0.00018996 -1.72931e-17)
(0.0523649 -0.000215765 5.05956e-27)
(0.0523651 -0.000240132 -2.88148e-18)
(0.0523652 -0.000264841 1.44078e-18)
(0.0523653 -0.000289592 1.44074e-18)
(0.0523655 -0.000314479 -1.44069e-18)
(0.0523654 -0.000339294 0)
(0.0523656 -0.000364136 0)
(0.0523657 -0.000388892 0)
(0.0523657 -0.00041368 1.44062e-18)
(0.0523658 -0.000438367 -1.44066e-18)
(0.0523659 -0.000462968 0)
(0.0523658 -0.000487577 0)
(0.052366 -0.000512082 0)
(0.052366 -0.000536485 0)
(0.052366 -0.000560808 0)
(0.0523661 -0.000585064 1.80066e-19)
(0.0523661 -0.000609183 0)
(0.052366 -0.000633226 0)
(0.0523661 -0.000657125 0)
(0.052366 -0.000680892 0)
(0.052366 -0.000704534 0)
(0.052366 -0.000728009 0)
(0.0523659 -0.000751365 0)
(0.0523659 -0.00077455 0)
(0.0523658 -0.000797581 0)
(0.0523658 -0.000820444 0)
(0.0523657 -0.000843135 0)
(0.0523657 -0.000865652 0)
(0.0523656 -0.000887988 0)
(0.0523655 -0.00091014 0)
(0.0523655 -0.000932086 0)
(0.0523653 -0.000953851 0)
(0.0523653 -0.000975406 0)
(0.0523652 -0.000996741 0)
(0.0523651 -0.00101786 0)
(0.052365 -0.00103871 0)
(0.0523648 -0.00105934 0)
(0.0523647 -0.00107971 0)
(0.0523646 -0.00109981 0)
(0.0523645 -0.00111966 0)
(0.0523644 -0.00113926 0)
(0.0523642 -0.00115859 0)
(0.0523641 -0.00117762 0)
(0.052364 -0.00119636 0)
(0.0523638 -0.0012148 0)
(0.0523637 -0.00123294 0)
(0.0523636 -0.00125079 0)
(0.0523634 -0.00126837 0)
(0.0523633 -0.00128566 0)
(0.0523632 -0.00130266 0)
(0.052363 -0.00131935 0)
(0.0523629 -0.00133574 0)
(0.0523628 -0.0013518 0)
(0.0523626 -0.00136754 0)
(0.0523625 -0.00138295 0)
(0.0523623 -0.00139802 0)
(0.0523622 -0.00141274 0)
(0.052362 -0.00142711 0)
(0.0523619 -0.00144112 0)
(0.0523617 -0.00145476 0)
(0.0523616 -0.00146802 0)
(0.0523614 -0.00148089 0)
(0.0523613 -0.00149337 0)
(0.0523611 -0.00150545 0)
(0.0523609 -0.00151712 0)
(0.0523608 -0.00152836 0)
(0.0523606 -0.00153918 0)
(0.0523604 -0.00154956 0)
(0.0523603 -0.00155949 0)
(0.0523601 -0.00156896 0)
(0.0523599 -0.00157796 0)
(0.0523598 -0.0015865 0)
(0.0523595 -0.00159459 0)
(0.0523594 -0.00160218 0)
(0.0523592 -0.00160925 0)
(0.052359 -0.00161583 0)
(0.0523588 -0.00162188 0)
(0.0523586 -0.00162741 0)
(0.0523584 -0.0016324 0)
(0.0523582 -0.00163684 0)
(0.052358 -0.00164072 0)
(0.0523578 -0.00164403 0)
(0.0523575 -0.00164676 0)
(0.0523573 -0.0016489 0)
(0.0523571 -0.00165044 0)
(0.0523569 -0.00165136 0)
(0.0523566 -0.00165166 0)
(0.0523564 -0.00165131 0)
(0.0523562 -0.00165032 0)
(0.0523559 -0.00164867 0)
(0.0523557 -0.00164635 0)
(0.0523554 -0.00164334 0)
(0.0523552 -0.00163965 0)
(0.0523549 -0.00163525 0)
(0.0523546 -0.00163013 0)
(0.0523544 -0.0016243 0)
(0.0523541 -0.00161774 0)
(0.0523538 -0.00161045 0)
(0.0523536 -0.00160241 0)
(0.0523533 -0.00159363 0)
(0.052353 -0.00158409 0)
(0.0523527 -0.0015738 0)
(0.0523525 -0.00156274 0)
(0.0523522 -0.00155093 0)
(0.0523519 -0.00153839 0)
(0.0523516 -0.00152509 0)
(0.0523513 -0.00151102 0)
(0.0523511 -0.00149621 0)
(0.0523508 -0.00148066 0)
(0.0523505 -0.00146437 0)
(0.0523502 -0.00144734 0)
(0.0523499 -0.0014296 0)
(0.0523496 -0.00141116 0)
(0.0523493 -0.00139202 0)
(0.052349 -0.0013722 0)
(0.0523487 -0.00135173 0)
(0.0523484 -0.00133062 0)
(0.0523481 -0.00130888 0)
(0.0523478 -0.00128656 0)
(0.0523475 -0.00126367 0)
(0.0523472 -0.00124025 0)
(0.0523469 -0.00121633 0)
(0.0523466 -0.00119195 0)
(0.0523462 -0.00116714 1.80018e-19)
(0.0523459 -0.00114198 -1.8002e-19)
(0.0523456 -0.00111648 0)
(0.0523452 -0.00109071 0)
(0.0523449 -0.00106473 0)
(0.0523445 -0.00103862 0)
(0.0523442 -0.00101245 0)
(0.0523438 -0.000986304 0)
(0.0523435 -0.000960294 0)
(0.0523431 -0.000934542 0)
(0.0523428 -0.000909195 0)
(0.0523425 -0.000884406 0)
(0.0523423 -0.000860375 0)
(0.052342 -0.000837409 0)
(0.0523419 -0.00081587 0)
(0.0523419 -0.000796194 0)
(0.0523421 -0.000779011 0)
(0.0523425 -0.000765187 0)
(0.0523433 -0.000755971 0)
(0.0523448 -0.000753206 0)
(0.0523473 -0.000759953 -1.44043e-18)
(0.052352 -0.000781454 5.76303e-18)
(0.0523571 -0.000816117 -1.96117e-16)
(0.0523757 -0.000913102 2.80146e-16)
(0.0524129 -0.00104282 2.82199e-16)
(0.0525338 -0.00144137 -1.00365e-16)
(0.0528204 -0.00209672 1.65913e-15)
(0.053672 -0.00394526 1.89977e-15)
(0.0551397 -0.00795748 -4.87309e-15)
(0.0544157 -0.0110809 4.63892e-15)
(0.0524712 -0.011499 0)
(0.0491634 -0.0113874 0)
(0.0447149 -0.0107468 0)
(0.0393468 -0.00964403 -1.5521e-15)
(0.033225 -0.00820492 4.94503e-17)
(0.0265451 -0.0065206 -2.09959e-24)
(0.0193996 -0.00469033 1.47425e-15)
(0.011865 -0.00278099 -3.4791e-16)
(0.00417749 -0.000898104 2.2973e-16)
(0.00281269 -4.05042e-05 -8.203e-16)
(0.00857177 -0.000189832 1.33674e-15)
(0.0148605 -0.000443139 -2.80256e-15)
(0.021582 -0.000771877 1.80828e-16)
(0.0286284 -0.00119806 8.63678e-15)
(0.0357765 -0.00170492 -5.86123e-15)
(0.0427071 -0.00227602 0)
(0.0489798 -0.00289068 1.04701e-14)
(0.0540411 -0.00351509 -9.52447e-15)
(0.0573291 -0.0041312 1.11286e-15)
(0.0516341 -0.00284761 -9.93486e-16)
(0.0466656 -0.00233942 0)
(0.0402452 -0.00183816 4.02387e-17)
(0.0332856 -0.00139524 0)
(0.0264673 -0.00102623 -2.30053e-17)
(0.0201949 -0.000730405 9.11027e-16)
(0.0146019 -0.000495204 -9.18699e-16)
(0.00971138 -0.000312252 8.73296e-17)
(0.00544092 -0.000154418 -2.41458e-16)
(0.00173607 -4.26104e-05 1.01976e-16)
(0.0016472 -2.19717e-05 2.75178e-18)
(0.00514947 -7.13161e-05 0)
(0.00913892 -0.000140652 0)
(0.0136557 -0.000199833 0)
(0.0187682 -0.000270592 1.99712e-17)
(0.0244987 -0.000353682 -1.38719e-16)
(0.0307905 -0.000472291 1.51817e-16)
(0.0373477 -0.000649549 1.06133e-16)
(0.0435919 -0.000899252 -5.89647e-27)
(0.048692 -0.00121881 -1.79153e-16)
(0.0469013 -0.000646844 -2.36448e-16)
(0.0418299 -0.000474352 0)
(0.0357308 -0.000348523 2.85892e-16)
(0.0293956 -0.000265944 -3.0931e-16)
(0.0233516 -0.00021505 0)
(0.0178632 -0.000180556 8.22032e-17)
(0.0129899 -0.00014554 -4.02345e-17)
(0.00869316 -0.000109305 0)
(0.00489774 -6.25793e-05 -1.7565e-17)
(0.00156704 -1.94936e-05 0)
(0.00155256 -4.62193e-06 0)
(0.00481792 -1.61422e-05 1.44562e-16)
(0.00852422 -3.24043e-05 -1.40064e-16)
(0.0127134 -5.58012e-05 3.70933e-17)
(0.0174558 -8.92373e-05 -3.80806e-16)
(0.0227946 -0.000129779 3.02525e-16)
(0.0286732 -0.000177771 0)
(0.0348476 -0.000237356 -5.24915e-16)
(0.0408095 -0.000316916 4.92051e-16)
(0.0458124 -0.000420735 2.28995e-16)
(0.0449804 -0.000248563 -4.637e-16)
(0.0400493 -0.000187362 0)
(0.0341821 -0.000164241 -1.72778e-17)
(0.0281185 -0.000172886 -2.97352e-16)
(0.0223556 -0.000193769 3.10234e-16)
(0.0171304 -0.000209055 -3.90986e-17)
(0.0124832 -0.000201307 1.90615e-17)
(0.00837742 -0.000167522 -1.80232e-17)
(0.00474622 -9.92506e-05 0)
(0.00153599 -3.21387e-05 0)
(0.0015013 -1.71002e-05 0)
(0.00464904 -5.54802e-05 0)
(0.00821982 -0.000104034 1.77232e-17)
(0.0122689 -0.000130593 -1.8761e-17)
(0.0168488 -0.000152968 1.90277e-16)
(0.0220004 -0.000160898 -1.52924e-16)
(0.0276838 -0.000162485 0)
(0.0336632 -0.000171559 -1.28319e-16)
(0.0394553 -0.000193528 1.3184e-16)
(0.0443365 -0.000238889 2.311e-16)
(0.0438782 -0.000191454 -1.45557e-17)
(0.039055 -0.000143782 -2.35045e-17)
(0.0333235 -0.000116171 -5.86028e-26)
(0.027408 -0.000106891 0)
(0.0217836 -0.00010654 4.83587e-18)
(0.0166836 -0.000106017 -2.44231e-18)
(0.0121545 -9.70429e-05 0)
(0.00814053 -7.96458e-05 0)
(0.00460382 -4.8173e-05 2.06186e-18)
(0.0014901 -1.54975e-05 -3.35833e-19)
(0.00148235 -3.30949e-06 3.36069e-19)
(0.00456999 -7.23533e-06 -2.06292e-18)
(0.00807223 -1.25579e-05 5.61478e-19)
(0.0120453 -2.6443e-05 0)
(0.0165281 -4.61809e-05 4.8851e-18)
(0.0215767 -6.79367e-05 -4.83568e-18)
(0.0271454 -9.24772e-05 0)
(0.0330027 -0.000120641 -1.08114e-17)
(0.0386755 -0.000155409 1.17689e-17)
(0.0434615 -0.00020084 1.45657e-17)
(0.0430959 -0.000137662 1.16895e-16)
(0.0383584 -9.8111e-05 -1.21884e-16)
(0.0327327 -7.90049e-05 2.16945e-18)
(0.0269263 -7.43564e-05 0)
(0.0214058 -7.88794e-05 0)
(0.0164006 -8.35715e-05 0)
(0.0119551 -7.99835e-05 0)
(0.00801283 -6.75876e-05 -1.1265e-18)
(0.00453502 -4.11664e-05 0)
(0.00146927 -1.35427e-05 0)
(0.00145293 -5.48861e-06 0)
(0.00448712 -1.48115e-05 0)
(0.00793112 -2.58474e-05 5.63453e-19)
(0.0118372 -3.93486e-05 0)
(0.0162433 -5.5737e-05 0)
(0.0212056 -7.10149e-05 0)
(0.0266801 -8.76574e-05 0)
(0.0324395 -0.00010761 0)
(0.0380232 -0.000135034 0)
(0.0427265 -0.000173706 0)
(0.0424067 -0.000141971 0)
(0.0377439 -0.000105732 0)
(0.0322022 -8.66216e-05 0)
(0.026487 -8.17763e-05 0)
(0.0210555 -8.44832e-05 0)
(0.0161325 -8.69513e-05 0)
(0.0117608 -8.1502e-05 0)
(0.00788414 -6.78857e-05 0)
(0.00446394 -4.12693e-05 0)
(0.00144746 -1.34717e-05 0)
(0.00143853 -4.65924e-06 0)
(0.0044289 -1.18219e-05 0)
(0.00781677 -1.97199e-05 0)
(0.0116578 -3.10882e-05 0)
(0.0159909 -4.58669e-05 0)
(0.0208722 -6.05955e-05 0)
(0.0262597 -7.72674e-05 0)
(0.0319308 -9.78157e-05 0)
(0.0374322 -0.000125675 0)
(0.042068 -0.000164117 0)
(0.0417719 -0.000147826 0)
(0.0371754 -0.000111742 0)
(0.031716 -8.65247e-05 0)
(0.0260879 -6.85031e-05 0)
(0.0207399 -5.5511e-05 0)
(0.015893 -4.46088e-05 0)
(0.0115892 -3.41095e-05 0)
(0.00777251 -2.41229e-05 0)
(0.0044045 -1.3489e-05 0)
(0.00143077 -3.99262e-06 0)
(0.00142307 -6.41136e-06 0)
(0.00437571 -1.95794e-05 0)
(0.00771745 -3.56925e-05 0)
(0.011504 -4.70002e-05 0)
(0.0157739 -5.69815e-05 0)
(0.0205831 -6.46304e-05 0)
(0.0258904 -7.27916e-05 0)
(0.0314771 -8.5804e-05 0)
(0.0368958 -0.000107836 0)
(0.0414623 -0.000142596 0)
(0.0411539 -0.000137249 0)
(0.0366212 -0.000100832 0)
(0.0312408 -7.43667e-05 0)
(0.0256953 -5.54383e-05 0)
(0.0204272 -4.1828e-05 0)
(0.0156539 -3.13177e-05 0)
(0.011416 -2.23767e-05 0)
(0.00765806 -1.49228e-05 0)
(0.00434159 -8.07156e-06 0)
(0.00141161 -2.27686e-06 0)
(0.0014013 -2.36371e-06 0)
(0.00431002 -6.7871e-06 0)
(0.0076022 -1.15794e-05 0)
(0.0113323 -1.79686e-05 0)
(0.0155384 -2.68049e-05 0)
(0.020276 -3.77967e-05 0)
(0.0255053 -5.26262e-05 0)
(0.0310105 -7.30807e-05 0)
(0.0363513 -0.000101948 0)
(0.040853 -0.000141242 0)
(0.0405647 -0.000150171 0)
(0.0360959 -0.000107338 0)
(0.0307927 -7.11102e-05 0)
(0.0253275 -4.06318e-05 0)
(0.0201362 -1.56663e-05 0)
(0.015433 2.53961e-06 0)
(0.0112572 1.29305e-05 0)
(0.00755385 1.58733e-05 0)
(0.00428459 1.04795e-05 0)
(0.00139427 3.90797e-06 0)
(0.00138911 8.33867e-08 0)
(0.00426204 1.31181e-06 0)
(0.0075081 3.90251e-06 0)
(0.0111833 -1.55119e-07 0)
(0.0153267 -9.31566e-06 0)
(0.0199939 -2.31135e-05 0)
(0.025146 -4.19816e-05 0)
(0.0305703 -6.62311e-05 0)
(0.0358343 -9.76035e-05 0)
(0.0402724 -0.000137916 0)
(0.0399558 -0.000125635 0)
(0.0355492 -9.79203e-05 0)
(0.0303226 -8.60574e-05 0)
(0.024939 -8.53317e-05 0)
(0.0198288 -9.04196e-05 0)
(0.0152011 -9.27805e-05 0)
(0.0110936 -8.61652e-05 0)
(0.00745025 -7.03865e-05 0)
(0.00423123 -4.16606e-05 0)
(0.00138034 -1.34774e-05 0)
(0.00136855 -6.33334e-06 0)
(0.00419713 -1.95297e-05 0)
(0.00739207 -3.6544e-05 0)
(0.0110093 -4.92835e-05 0)
(0.0150873 -6.07349e-05 0)
(0.0196808 -6.90574e-05 0)
(0.0247525 -7.65917e-05 0)
(0.0300946 -8.70705e-05 0)
(0.0352804 -0.000104616 0)
(0.039655 -0.000133705 0)
(0.0393508 -0.000125652 0)
(0.0350101 -9.18485e-05 0)
(0.0298618 -7.09221e-05 0)
(0.0245588 -5.98076e-05 0)
(0.0195248 -5.49668e-05 0)
(0.014966 -5.13716e-05 0)
(0.0109196 -4.51911e-05 0)
(0.00733083 -3.57921e-05 0)
(0.00416156 -2.09081e-05 0)
(0.00135653 -6.66999e-06 0)
(0.00134274 -1.03004e-06 0)
(0.00412399 -3.02403e-06 0)
(0.00726886 -6.08085e-06 0)
(0.0108306 -1.41349e-05 0)
(0.0148469 -2.64878e-05 0)
(0.0193717 -4.19799e-05 0)
(0.0243684 -6.09779e-05 0)
(0.0296318 -8.41622e-05 0)
(0.0347417 -0.000113525 0)
(0.039052 -0.000151225 0)
(0.0387575 -0.000132789 0)
(0.0344816 -9.94382e-05 0)
(0.0294102 -8.01381e-05 0)
(0.0241895 -7.19327e-05 0)
(0.0192345 -6.99063e-05 0)
(0.0147478 -6.81266e-05 0)
(0.0107652 -6.11533e-05 0)
(0.00723256 -4.92244e-05 0)
(0.00411101 -2.94065e-05 0)
(0.00134355 -9.20967e-06 0)
(0.00133627 -2.68001e-06 0)
(0.00408017 -6.94162e-06 0)
(0.00717221 -1.22304e-05 0)
(0.0106722 -1.88304e-05 0)
(0.014619 -2.76949e-05 0)
(0.0190662 -3.77967e-05 0)
(0.0239787 -5.1045e-05 0)
(0.0291559 -6.91931e-05 0)
(0.0341857 -9.50664e-05 0)
(0.0384327 -0.000131566 0)
(0.0381211 -0.000126247 0)
(0.033909 -9.01585e-05 0)
(0.0289196 -6.43026e-05 0)
(0.0237832 -4.54603e-05 0)
(0.0189091 -3.19923e-05 0)
(0.0144961 -2.2018e-05 0)
(0.0105793 -1.43169e-05 0)
(0.00710565 -8.6642e-06 0)
(0.00403736 -4.43935e-06 0)
(0.00131861 -1.15094e-06 0)
(0.0013132 -2.83219e-06 0)
(0.00401314 -7.91045e-06 0)
(0.00705668 -1.34983e-05 0)
(0.0105013 -1.97064e-05 0)
(0.0143851 -2.76535e-05 0)
(0.018761 -3.67526e-05 0)
(0.0235941 -4.88391e-05 0)
(0.0286874 -6.6293e-05 0)
(0.0336348 -9.1863e-05 0)
(0.037812 -0.000128241 0)
(0.0374862 -0.000112601 0)
(0.0333433 -7.70677e-05 0)
(0.0284377 -5.32058e-05 0)
(0.0233891 -3.69525e-05 0)
(0.0185991 -2.64777e-05 0)
(0.014263 -1.9353e-05 0)
(0.0104148 -1.38202e-05 0)
(0.00700181 -9.34693e-06 0)
(0.00398562 -5.07037e-06 0)
(0.00130678 -1.43907e-06 0)
(0.00129357 -6.60013e-10 0)
(0.00394745 1.40624e-06 0)
(0.00693636 3.88467e-06 0)
(0.0103185 2.35259e-06 0)
(0.0141321 -2.95599e-06 0)
(0.0184294 -1.20929e-05 0)
(0.0231766 -2.60016e-05 0)
(0.0281803 -4.55023e-05 0)
(0.0330423 -7.20794e-05 0)
(0.0371493 -0.000108264 0)
(0.0368105 -0.000102668 0)
(0.0327403 -6.58131e-05 0)
(0.0279225 -3.95437e-05 0)
(0.0229631 -1.92454e-05 0)
(0.0182575 -4.71329e-06 0)
(0.0139979 4.62783e-06 0)
(0.010218 9.23847e-06 0)
(0.00686547 9.83847e-06 0)
(0.00390318 6.49226e-06 0)
(0.00127616 2.31519e-06 0)
(0.00126105 -2.438e-07 0)
(0.00386226 7.17409e-07 0)
(0.00679778 2.68174e-06 0)
(0.0101203 1.32078e-06 0)
(0.0138664 -3.55489e-06 0)
(0.0180877 -1.21556e-05 0)
(0.022751 -2.58416e-05 0)
(0.0276655 -4.58603e-05 0)
(0.0324392 -7.38373e-05 0)
(0.0364703 -0.000111833 0)
(0.0361309 -0.000117365 0)
(0.0321381 -7.91857e-05 0)
(0.0274089 -5.21977e-05 0)
(0.0225402 -3.24412e-05 0)
(0.0179203 -1.8781e-05 0)
(0.0137382 -9.61332e-06 0)
(0.010027 -3.75433e-06 0)
(0.00673511 -6.1553e-07 0)
(0.00382656 3.21118e-07 0)
(0.00124927 3.28163e-07 0)
(0.00124061 -2.4414e-06 0)
(0.00379549 -6.57191e-06 0)
(0.00667668 -1.10936e-05 0)
(0.009937 -1.59969e-05 0)
(0.0136125 -2.26336e-05 0)
(0.0177539 -3.08758e-05 0)
(0.022329 -4.28489e-05 0)
(0.0271505 -6.11181e-05 0)
(0.0318341 -8.83665e-05 0)
(0.0357885 -0.000127279 0)
(0.0354348 -0.000120752 0)
(0.0315186 -8.21574e-05 0)
(0.0268807 -5.6356e-05 0)
(0.0221076 -3.87961e-05 0)
(0.0175794 -2.76805e-05 0)
(0.0134807 -2.03319e-05 0)
(0.0098432 -1.46966e-05 0)
(0.00661667 -1.0081e-05 0)
(0.00376493 -5.44453e-06 0)
(0.00123321 -1.57643e-06 0)
(0.00122212 -8.30491e-07 0)
(0.0037278 -1.51199e-06 0)
(0.0065489 -1.91538e-06 0)
(0.00974074 -4.58892e-06 0)
(0.0133394 -1.0171e-05 0)
(0.0173947 -1.87906e-05 0)
(0.021875 -3.19962e-05 0)
(0.0265983 -5.14956e-05 0)
(0.0311886 -7.93882e-05 0)
(0.0350662 -0.000118573 0)
(0.0346863 -0.000107002 0)
(0.0308489 -6.71448e-05 0)
(0.0263074 -4.01227e-05 0)
(0.0216343 -2.01582e-05 0)
(0.0172017 -6.73258e-06 0)
(0.0131902 1.40833e-06 0)
(0.00963062 5.38174e-06 0)
(0.00647384 6.15981e-06 0)
(0.00368411 4.23322e-06 0)
(0.00120716 1.54718e-06 0)
(0.00118908 1.27638e-06 0)
(0.00363497 5.27799e-06 0)
(0.00639258 1.05296e-05 0)
(0.00951382 1.1361e-05 0)
(0.0130338 7.82066e-06 0)
(0.0170013 -8.33747e-07 0)
(0.0213856 -1.57528e-05 0)
(0.0260079 -3.77695e-05 0)
(0.0304999 -6.81702e-05 0)
(0.0342949 -0.000109221 0)
(0.0338999 -0.000113081 0)
(0.0301477 -7.10811e-05 0)
(0.0257063 -4.19163e-05 0)
(0.0211354 -1.98409e-05 0)
(0.0167998 -4.59561e-06 0)
(0.0128766 4.77862e-06 0)
(0.00939645 9.19215e-06 0)
(0.00631075 9.62442e-06 0)
(0.00358521 6.44464e-06 0)
(0.00117052 2.28347e-06 0)
(0.0011562 -1.44347e-06 0)
(0.00354165 -3.45535e-06 0)
(0.00623453 -5.57044e-06 0)
(0.00928358 -8.0527e-06 0)
(0.0127227 -1.25135e-05 0)
(0.0165999 -1.95138e-05 0)
(0.0208848 -3.14169e-05 0)
(0.0254027 -5.08837e-05 0)
(0.029793 -8.04512e-05 0)
(0.0335014 -0.000122811 0)
(0.0330888 -0.000119034 0)
(0.0294237 -7.5783e-05 0)
(0.0250857 -4.70998e-05 0)
(0.0206228 -2.71619e-05 0)
(0.016391 -1.47725e-05 0)
(0.0125625 -7.58657e-06 0)
(0.00916687 -3.55337e-06 0)
(0.00615688 -1.49941e-06 0)
(0.00349883 -3.48801e-07 0)
(0.0011433 2.16831e-08 0)
(0.00112656 7.36443e-07 0)
(0.00344966 3.41095e-06 0)
(0.00607236 6.86008e-06 0)
(0.00904301 6.38397e-06 0)
(0.0123947 1.62593e-06 0)
(0.0161743 -8.05772e-06 0)
(0.0203525 -2.40933e-05 0)
(0.0247592 -4.77743e-05 0)
(0.0290433 -8.08917e-05 0)
(0.0326633 -0.000126074 0)
(0.0322319 -0.000128887 0)
(0.0286589 -8.25916e-05 0)
(0.0244305 -5.04557e-05 0)
(0.0200805 -2.63827e-05 0)
(0.015956 -9.77156e-06 0)
(0.0122254 6.3001e-07 0)
(0.00891744 5.97774e-06 0)
(0.00598598 7.30007e-06 0)
(0.00339842 5.1534e-06 0)
(0.00110831 1.89881e-06 0)
(0.00109273 -1.83921e-06 0)
(0.00335053 -4.86383e-06 0)
(0.00590184 -8.34991e-06 0)
(0.00879269 -1.17947e-05 0)
(0.0120552 -1.72176e-05 0)
(0.015735 -2.52134e-05 0)
(0.0198034 -3.84103e-05 0)
(0.0240946 -5.98566e-05 0)
(0.0282665 -9.24882e-05 0)
(0.0317918 -0.000139418 0)
(0.0313357 -0.000135677 0)
(0.0278584 -8.75463e-05 0)
(0.0237442 -5.56314e-05 0)
(0.0195134 -3.36482e-05 0)
(0.0155034 -2.00105e-05 0)
(0.0118771 -1.19675e-05 0)
(0.00866236 -7.12151e-06 0)
(0.00581455 -4.1862e-06 0)
(0.00330184 -1.85339e-06 0)
(0.00107771 -4.43476e-07 0)
(0.00105923 4.43718e-07 0)
(0.00324728 2.36091e-06 0)
(0.00572062 4.75084e-06 0)
(0.00852477 3.43517e-06 0)
(0.0116909 -2.28611e-06 0)
(0.0152631 -1.31016e-05 0)
(0.0192139 -3.07106e-05 0)
(0.0233825 -5.67764e-05 0)
(0.0274371 -9.35067e-05 0)
(0.0308651 -0.000143928 0)
(0.0303868 -0.000147773 0)
(0.0270111 -9.59696e-05 0)
(0.0230182 -6.00136e-05 0)
(0.0189125 -3.34676e-05 0)
(0.0150215 -1.52736e-05 0)
(0.0115036 -3.76545e-06 0)
(0.00838603 2.54999e-06 0)
(0.00562545 4.8067e-06 0)
(0.00319118 3.77587e-06 0)
(0.00103953 1.48306e-06 0)
(0.00102249 -2.21598e-06 0)
(0.00313833 -6.20403e-06 0)
(0.00553232 -1.0988e-05 0)
(0.00824782 -1.55963e-05 0)
(0.011315 -2.23809e-05 0)
(0.0147766 -3.19212e-05 0)
(0.0186056 -4.71025e-05 0)
(0.022646 -7.13572e-05 0)
(0.026576 -0.000108097 0)
(0.0298991 -0.000160862 0)
(0.0293942 -0.000158221 0)
(0.0261246 -0.000104228 0)
(0.0222585 -6.82889e-05 0)
(0.0182853 -4.38003e-05 0)
(0.0145211 -2.85606e-05 0)
(0.0111185 -1.92477e-05 0)
(0.0081042 -1.30416e-05 0)
(0.00543633 -8.59535e-06 0)
(0.00308511 -4.35137e-06 0)
(0.00100632 -1.21008e-06 0)
(0.000986745 -1.94255e-07 0)
(0.00302588 1.73808e-07 0)
(0.00533331 5.24115e-07 0)
(0.00795264 -2.26701e-06 0)
(0.0109131 -9.36342e-06 0)
(0.0142554 -2.14563e-05 0)
(0.0179536 -4.06358e-05 0)
(0.0218577 -6.91537e-05 0)
(0.0256573 -0.000109834 0)
(0.0288725 -0.000166268 0)
(0.0283401 -0.000168981 0)
(0.025183 -0.00011086 0)
(0.0214518 -7.07086e-05 0)
(0.017618 -4.17116e-05 0)
(0.0139865 -2.21501e-05 0)
(0.0107048 -9.72269e-06 0)
(0.00779858 -2.43824e-06 0)
(0.00522796 9.87742e-07 0)
(0.00296429 1.59288e-06 0)
(0.000965516 8.02325e-07 0)
(0.000947532 -2.02311e-06 0)
(0.00290706 -5.71042e-06 0)
(0.005126 -1.02283e-05 0)
(0.00764651 -1.54071e-05 0)
(0.0104968 -2.34983e-05 0)
(0.0137158 -3.51348e-05 0)
(0.0172781 -5.32595e-05 0)
(0.0210389 -8.13845e-05 0)
(0.0246998 -0.000123209 0)
(0.0277985 -0.00018269 0)
(0.0272376 -0.000176538 0)
(0.024199 -0.000115942 0)
(0.0206101 -7.50366e-05 0)
(0.0169244 -4.68467e-05 0)
(0.0134343 -2.88857e-05 0)
(0.010281 -1.78156e-05 0)
(0.00748933 -1.0793e-05 0)
(0.00502151 -6.31898e-06 0)
(0.00284967 -2.86814e-06 0)
(0.000930457 -6.79877e-07 0)
(0.000908629 2.54773e-07 0)
(0.00278392 1.34205e-06 0)
(0.0049073 2.23254e-06 0)
(0.00732123 -3.31189e-07 0)
(0.0100529 -7.59082e-06 0)
(0.0131393 -2.06327e-05 0)
(0.0165559 -4.17701e-05 0)
(0.0201644 -7.34667e-05 0)
(0.0236789 -0.000118776 0)
(0.0266562 -0.000181684 0)
(0.0260623 -0.00018225 0)
(0.0231496 -0.000117632 0)
(0.0197115 -7.29833e-05 0)
(0.0161812 -4.08748e-05 0)
(0.0128388 -1.93516e-05 0)
(0.00981977 -6.02221e-06 0)
(0.00714836 1.26014e-06 0)
(0.00478855 4.08286e-06 0)
(0.00271392 3.52066e-06 0)
(0.000884113 1.43375e-06 0)
(0.000862972 -1.25971e-06 0)
(0.0026484 -3.4167e-06 0)
(0.00467321 -6.26358e-06 0)
(0.00697742 -1.06582e-05 0)
(0.00958688 -1.8731e-05 0)
(0.0125364 -3.15042e-05 0)
(0.015802 -5.20154e-05 0)
(0.0192512 -8.37798e-05 0)
(0.022611 -0.000130574 0)
(0.0254581 -0.000196662 0)
(0.0248352 -0.000190866 0)
(0.0220557 -0.000123595 0)
(0.0187763 -7.78344e-05 0)
(0.0154105 -4.60229e-05 0)
(0.0122246 -2.55577e-05 0)
(0.00934745 -1.31599e-05 0)
(0.00680252 -5.95215e-06 0)
(0.00455628 -2.1676e-06 0)
(0.0025834 -2.91155e-07 0)
(0.000843069 1.74378e-07 0)
(0.000818192 7.84002e-07 0)
(0.00250955 2.76973e-06 0)
(0.0044289 4.41564e-06 0)
(0.00661576 2.26889e-06 0)
(0.00909468 -5.02011e-06 0)
(0.0118981 -1.89578e-05 0)
(0.015003 -4.20887e-05 0)
(0.0182833 -7.70807e-05 0)
(0.02148 -0.000127195 0)
(0.0241908 -0.000196757 0)
(0.0235336 -0.000198614 0)
(0.0208947 -0.000127315 0)
(0.0177826 -7.80345e-05 0)
(0.0145888 -4.27171e-05 0)
(0.0115658 -1.91255e-05 0)
(0.00883658 -4.68606e-06 0)
(0.00642411 2.95977e-06 0)
(0.00429699 5.65387e-06 0)
(0.00243158 4.56575e-06 0)
(0.000790772 1.78972e-06 0)
(0.000766843 -1.0778e-06 0)
(0.00235819 -3.01388e-06 0)
(0.0041685 -5.8415e-06 0)
(0.00623435 -1.03445e-05 0)
(0.00857861 -1.88478e-05 0)
(0.0112313 -3.26605e-05 0)
(0.0141696 -5.51037e-05 0)
(0.017274 -9.00176e-05 0)
(0.0202996 -0.000141517 0)
(0.0228657 -0.000214314 0)
(0.02218 -0.000209928 0)
(0.0196886 -0.000135911 0)
(0.0167518 -8.5458e-05 0)
(0.0137393 -5.04672e-05 0)
(0.0108884 -2.79504e-05 0)
(0.00831501 -1.43215e-05 0)
(0.00604142 -6.42324e-06 0)
(0.00403911 -2.28294e-06 0)
(0.00228588 -2.45455e-07 0)
(0.000744447 2.13139e-07 0)
(0.0007175 8.18177e-07 0)
(0.00220551 2.6737e-06 0)
(0.00390025 3.89666e-06 0)
(0.00583773 1.26706e-06 0)
(0.00803929 -6.768e-06 0)
(0.0105322 -2.19316e-05 0)
(0.0132942 -4.70567e-05 0)
(0.016213 -8.51748e-05 0)
(0.0190589 -0.000139953 0)
(0.0214745 -0.000216197 0)
(0.0207573 -0.000217573 0)
(0.0184206 -0.000139723 0)
(0.0156675 -8.58535e-05 0)
(0.0128435 -4.746e-05 0)
(0.010171 -2.18669e-05 0)
(0.00775905 -6.18885e-06 0)
(0.00562985 2.19934e-06 0)
(0.00375741 5.32221e-06 0)
(0.00212143 4.47953e-06 0)
(0.000688205 1.79077e-06 0)
(0.000662213 -9.70142e-07 0)
(0.00204175 -2.81575e-06 0)
(0.00361798 -5.72207e-06 0)
(0.00542403 -1.05769e-05 0)
(0.00747932 -1.98067e-05 0)
(0.00980822 -3.49084e-05 0)
(0.0123887 -5.94178e-05 0)
(0.0151154 -9.74407e-05 0)
(0.0177739 -0.00015344 0)
(0.0200309 -0.000232597 0)
(0.0192896 -0.000227477 0)
(0.0171141 -0.00014736 0)
(0.014552 -9.25222e-05 0)
(0.0119249 -5.4483e-05 0)
(0.0094388 -2.98881e-05 0)
(0.00719522 -1.49455e-05 0)
(0.0052159 -6.32057e-06 0)
(0.00347812 -1.88097e-06 0)
(0.0019633 1.03861e-07 0)
(0.000637724 3.57097e-07 0)
(0.000609011 9.31645e-07 0)
(0.00187757 2.86605e-06 0)
(0.00332994 3.97002e-06 0)
(0.0049985 1.0069e-06 0)
(0.0069009 -7.66832e-06 0)
(0.00905831 -2.39622e-05 0)
(0.0114491 -5.09123e-05 0)
(0.0139753 -9.1796e-05 0)
(0.0164392 -0.000150593 0)
(0.0185324 -0.000232525 0)
(0.0177675 -0.000232262 0)
(0.0157593 -0.0001493 0)
(0.013395 -9.18013e-05 0)
(0.0109703 -5.09493e-05 0)
(0.00867505 -2.37065e-05 0)
(0.00660381 -6.98562e-06 0)
(0.00477828 2.0057e-06 0)
(0.00317877 5.42166e-06 0)
(0.00178879 4.62871e-06 0)
(0.000578228 1.8659e-06 0)
(0.000550631 -8.84703e-07 0)
(0.00170441 -2.5988e-06 0)
(0.00303137 -5.4257e-06 0)
(0.0045609 -1.04951e-05 0)
(0.00630849 -2.02616e-05 0)
(0.00829205 -3.63405e-05 0)
(0.0104899 -6.24045e-05 0)
(0.0128113 -0.00010272 0)
(0.0150748 -0.000161988 0)
(0.0169979 -0.000245748 0)
(0.0162199 -0.000239374 0)
(0.0143831 -0.000155396 0)
(0.0122214 -9.77637e-05 0)
(0.0100047 -5.77854e-05 0)
(0.00790572 -3.18357e-05 0)
(0.00601132 -1.5977e-05 0)
(0.00434298 -6.76514e-06 0)
(0.00288467 -1.99225e-06 0)
(0.00162186 1.12874e-07 0)
(0.000524686 3.83293e-07 0)
(0.000495118 8.51637e-07 0)
(0.00153341 2.5441e-06 0)
(0.0027317 3.27447e-06 0)
(0.00411853 -1.10526e-07 0)
(0.00570739 -9.32133e-06 0)
(0.00751259 -2.63095e-05 0)
(0.00951257 -5.42377e-05 0)
(0.0116242 -9.65539e-05 0)
(0.0136833 -0.000157463 0)
(0.0154336 -0.000242457 0)
(0.0146475 -0.000239666 0)
(0.0129853 -0.000154611 0)
(0.0110293 -9.56386e-05 0)
(0.00902243 -5.3897e-05 0)
(0.0071207 -2.60645e-05 0)
(0.00540388 -8.88154e-06 0)
(0.0038937 5.49588e-07 0)
(0.00257752 4.39559e-06 0)
(0.00144306 4.05747e-06 0)
(0.000463959 1.69709e-06 0)
(0.000436184 -9.65205e-07 0)
(0.00135796 -2.75194e-06 0)
(0.0024287 -5.55312e-06 0)
(0.00367415 -1.08765e-05 0)
(0.00510548 -2.10736e-05 0)
(0.00673342 -3.76856e-05 0)
(0.00853613 -6.43715e-05 0)
(0.0104375 -0.000105396 0)
(0.0122904 -0.000165545 0)
(0.0138651 -0.000250506 0)
(0.0130851 -0.000241577 0)
(0.011598 -0.000157638 0)
(0.00984798 -9.9947e-05 0)
(0.00805195 -5.99585e-05 0)
(0.0063485 -3.3907e-05 0)
(0.00480969 -1.78024e-05 0)
(0.00345738 -8.21817e-06 0)
(0.00228288 -3.02602e-06 0)
(0.00127599 -4.88159e-07 0)
(0.000410513 1.99893e-07 0)
(0.000381797 5.56979e-07 0)
(0.00118954 1.65676e-06 0)
(0.00213295 1.74428e-06 0)
(0.00323713 -2.0439e-06 0)
(0.00451115 -1.14262e-05 0)
(0.00596188 -2.82335e-05 0)
(0.00756731 -5.56311e-05 0)
(0.00925891 -9.71225e-05 0)
(0.0109067 -0.000156972 0)
(0.0123073 -0.000240692 0)
(0.0115403 -0.000233258 0)
(0.0102262 -0.000150767 0)
(0.00867944 -9.36475e-05 0)
(0.00709033 -5.33799e-05 0)
(0.00558085 -2.65976e-05 0)
(0.00421622 -1.00212e-05 0)
(0.00301874 -7.77862e-07 0)
(0.00198327 3.20705e-06 0)
(0.00110198 3.29929e-06 0)
(0.000351736 1.44218e-06 0)
(0.000325461 -7.82488e-07 0)
(0.0010211 -2.04571e-06 0)
(0.00184159 -4.01469e-06 0)
(0.00280953 -8.93599e-06 0)
(0.00393166 -1.87834e-05 0)
(0.00521112 -3.49653e-05 0)
(0.00662544 -6.08507e-05 0)
(0.00811287 -0.000100343 0)
(0.00955983 -0.00015794 0)
(0.010789 -0.000239077 0)
(0.0100532 -0.000225059 0)
(0.0089078 -0.000146384 0)
(0.00755892 -9.22168e-05 0)
(0.00617147 -5.45774e-05 0)
(0.00485088 -2.99701e-05 0)
(0.00365523 -1.47769e-05 0)
(0.00260718 -5.89382e-06 0)
(0.0017056 -1.33398e-06 0)
(0.000944791 4.33347e-07 0)
(0.000301664 4.78679e-07 0)
(0.000275024 7.63312e-07 0)
(0.000864716 2.25757e-06 0)
(0.00156679 2.83226e-06 0)
(0.00240329 -1.29418e-07 0)
(0.00337885 -8.17427e-06 0)
(0.00449282 -2.31578e-05 0)
(0.00572234 -4.8031e-05 0)
(0.0070126 -8.60072e-05 0)
(0.0082661 -0.000140956 0)
(0.00933049 -0.000217916 0)
(0.00863179 -0.000205698 0)
(0.00764707 -0.000130566 0)
(0.00648602 -7.79812e-05 0)
(0.00528918 -4.05638e-05 0)
(0.00414683 -1.55207e-05 0)
(0.00311089 -3.9106e-07 0)
(0.00220456 7.1357e-06 0)
(0.0014302 9.13978e-06 0)
(0.000784423 6.68032e-06 0)
(0.000247206 2.49062e-06 0)
(0.000220275 1.8337e-06 0)
(0.000706876 5.22166e-06 0)
(0.00129835 7.8009e-06 0)
(0.00201253 5.91188e-06 0)
(0.00285178 -1.34176e-06 0)
(0.0038123 -1.59802e-05 0)
(0.0048705 -4.047e-05 0)
(0.00597709 -7.73652e-05 0)
(0.00704892 -0.000129977 0)
(0.00795693 -0.000202761 0)
(0.00731095 -0.000202921 0)
(0.0064769 -0.000135943 0)
(0.0054915 -9.07045e-05 0)
(0.0044728 -6.01682e-05 0)
(0.00349684 -4.08159e-05 0)
(0.00260974 -2.84087e-05 0)
(0.00183529 -1.95994e-05 0)
(0.00117898 -1.2945e-05 0)
(0.000639366 -6.73132e-06 0)
(0.000198773 -1.92038e-06 0)
(0.000179485 -1.11767e-06 0)
(0.000577121 -3.08117e-06 0)
(0.00106766 -6.08728e-06 0)
(0.00166926 -1.09849e-05 0)
(0.00238231 -1.95186e-05 0)
(0.00319941 -3.25287e-05 0)
(0.00409671 -5.28371e-05 0)
(0.00503121 -8.38292e-05 0)
(0.00593388 -0.000129432 0)
(0.0066975 -0.000194374 0)
(0.00611146 -0.00018045 0)
(0.0054149 -0.00011882 0)
(0.00459068 -7.63479e-05 0)
(0.00373591 -4.67593e-05 0)
(0.00291306 -2.73468e-05 0)
(0.00216234 -1.51014e-05 0)
(0.00150784 -7.54156e-06 0)
(0.000958573 -3.24908e-06 0)
(0.000515087 -9.76229e-07 0)
(0.000159506 -4.94051e-08 0)
(0.000139113 5.36681e-07 0)
(0.000453965 1.50198e-06 0)
(0.000852687 1.44247e-06 0)
(0.00135221 -1.23241e-06 0)
(0.00195117 -7.72147e-06 0)
(0.00263919 -1.9332e-05 0)
(0.00339196 -3.83674e-05 0)
(0.00417168 -6.73307e-05 0)
(0.00492194 -0.000109294 0)
(0.00555536 -0.000168158 0)
(0.0050338 -0.000157614 0)
(0.00446035 -0.000103963 0)
(0.00378002 -6.74348e-05 0)
(0.00307117 -4.20693e-05 0)
(0.00238451 -2.55519e-05 0)
(0.00175542 -1.50705e-05 0)
(0.00120843 -8.36531e-06 0)
(0.000755284 -4.30877e-06 0)
(0.000398217 -1.78724e-06 0)
(0.000120853 -3.55922e-07 0)
(0.000104507 1.88339e-07 0)
(0.000347249 8.35282e-07 0)
(0.000665455 9.76454e-07 0)
(0.00107529 -1.12732e-06 0)
(0.00157365 -6.57856e-06 0)
(0.00214741 -1.63393e-05 0)
(0.00277187 -3.24664e-05 0)
(0.00341399 -5.72138e-05 0)
(0.00402855 -9.33142e-05 0)
(0.00454584 -0.000144202 0)
(0.00408827 -0.000131062 0)
(0.00362273 -8.34284e-05 0)
(0.00306844 -5.04436e-05 0)
(0.00248735 -2.67607e-05 0)
(0.00191981 -1.10472e-05 0)
(0.00139702 -1.57309e-06 0)
(0.000943956 3.26718e-06 0)
(0.000574964 4.67795e-06 0)
(0.000293947 3.51677e-06 0)
(8.60187e-05 1.34746e-06 0)
(7.14263e-05 -8.00697e-07 0)
(0.000249224 -1.25487e-06 0)
(0.000497027 -1.153e-06 0)
(0.000829375 -3.21842e-06 0)
(0.00124139 -8.27756e-06 0)